 DBCSR| CPU Multiplication driver                                           BLAS
 DBCSR| Multrec recursion limit                                              512
 DBCSR| Multiplication stack size                                           1000
 DBCSR| Maximum elements for images                                    UNLIMITED
 DBCSR| Multiplicative factor virtual images                                   1
 DBCSR| Use multiplication densification                                       T
 DBCSR| Multiplication size stacks                                             3
 DBCSR| Use memory pool for CPU allocation                                     F
 DBCSR| Number of 3D layers                                               SINGLE
 DBCSR| Use MPI memory allocation                                              F
 DBCSR| Use RMA algorithm                                                      F
 DBCSR| Use Communication thread                                               T
 DBCSR| Communication thread load                                             83
 DBCSR| MPI: My node id                                                        0
 DBCSR| MPI: Number of nodes                                                 192
 DBCSR| OMP: Current number of threads                                         2
 DBCSR| OMP: Max number of threads                                             2
 DBCSR| Split modifier for TAS multiplication algorithm                  1.0E+00


  **** **** ******  **  PROGRAM STARTED AT               2022-01-21 10:57:00.038
 ***** ** ***  *** **   PROGRAM STARTED ON                             nid003391
 **    ****   ******    PROGRAM STARTED BY                                hjudge
 ***** **    ** ** **   PROGRAM PROCESS ID                                155114
  **** **  *******  **  PROGRAM STARTED IN /mnt/lustre/a2fs-work2/work/z19/z19/h
                                           judge/CUG/archer2/CPU/CP2K/H2O-64/3NO
                                           DES/128CPN/2THREADS

 CP2K| version string:                                          CP2K version 8.2
 CP2K| source code revision number:                                  git:310b7ab
 CP2K| cp2kflags: omp libint fftw3 libxc elpa parallel mpi3 scalapack plumed2   
 CP2K| is freely available from                            https://www.cp2k.org/
 CP2K| Program compiled at                          Thu Dec  2 10:30:45 GMT 2021
 CP2K| Program compiled on                                                  ln02
 CP2K| Program compiled for                                              ARCHER2
 CP2K| Data directory path         /work/y07/shared/apps/core/cp2k/cp2k-8.2/data
 CP2K| Input file name                                                H2O-64.inp

 GLOBAL| Force Environment number                                              1
 GLOBAL| Basis set file name                                      GTH_BASIS_SETS
 GLOBAL| Potential file name                                           POTENTIAL
 GLOBAL| MM Potential file name                                     MM_POTENTIAL
 GLOBAL| Coordinate file name                                      __STD_INPUT__
 GLOBAL| Method name                                                        CP2K
 GLOBAL| Project name                                                     H2O-64
 GLOBAL| Run type                                                             MD
 GLOBAL| FFT library                                                       FFTW3
 GLOBAL| Diagonalization library                                            ELPA
 GLOBAL| Minimum number of eigenvectors for ELPA usage                        16
 GLOBAL| Orthonormality check for eigenvectors                          DISABLED
 GLOBAL| Matrix multiplication library                                    SCALAP
 GLOBAL| All-to-all communication in single precision                          F
 GLOBAL| FFTs using library dependent lengths                                  F
 GLOBAL| Grid backend                                                       AUTO
 GLOBAL| Global print level                                                  LOW
 GLOBAL| MPI I/O enabled                                                       T
 GLOBAL| Total number of message passing processes                           192
 GLOBAL| Number of threads for this process                                    2
 GLOBAL| This output is from process                                           0
 GLOBAL| CPU model name                          AMD EPYC 7742 64-Core Processor
 GLOBAL| CPUID                                                              1002

 MEMORY| system memory details [Kb]
 MEMORY|                        rank 0           min           max       average
 MEMORY| MemTotal            263528088     263528088     263528088     263528088
 MEMORY| MemFree             247520316     247215700     247520316     247396573
 MEMORY| Buffers                 27092         27092         27616         27270
 MEMORY| Cached                 618656        602776        699372        640268
 MEMORY| Slab                  1553580       1553580       1594396       1569474
 MEMORY| SReclaimable            99268         94216         99268         97240
 MEMORY| MemLikelyFree       248265332     248036392     248265332     248161352


 GENERATE|  Preliminary Number of Bonds generated:                             0
 GENERATE|  Achieved consistency in connectivity generation.

 *******************************************************************************
 *******************************************************************************
 **                                                                           **
 **     #####                         ##              ##                      **
 **    ##   ##            ##          ##              ##                      **
 **   ##     ##                       ##            ######                    **
 **   ##     ##  ##   ##  ##   #####  ##  ##   ####   ##    #####    #####    **
 **   ##     ##  ##   ##  ##  ##      ## ##   ##      ##   ##   ##  ##   ##   **
 **   ##  ## ##  ##   ##  ##  ##      ####     ###    ##   ######   ######    **
 **    ##  ###   ##   ##  ##  ##      ## ##      ##   ##   ##       ##        **
 **     #######   #####   ##   #####  ##  ##  ####    ##    #####   ##        **
 **           ##                                                    ##        **
 **                                                                           **
 **                                                ... make the atoms dance   **
 **                                                                           **
 **            Copyright (C) by CP2K developers group (2000-2021)             **
 **                      J. Chem. Phys. 152, 194103 (2020)                    **
 **                                                                           **
 *******************************************************************************


 TOTAL NUMBERS AND MAXIMUM NUMBERS

  Total number of            - Atomic kinds:                                   2
                             - Atoms:                                        192
                             - Shell sets:                                   384
                             - Shells:                                      1152
                             - Primitive Cartesian functions:               1344
                             - Cartesian basis functions:                   2688
                             - Spherical basis functions:                   2560

  Maximum angular momentum of- Orbital basis functions:                        2
                             - Local part of the GTH pseudopotential:          2
                             - Non-local part of the GTH pseudopotential:      0


 SCF PARAMETERS         Density guess:                                    ATOMIC
                        --------------------------------------------------------
                        max_scf:                                              50
                        max_scf_history:                                       0
                        max_diis:                                              4
                        --------------------------------------------------------
                        eps_scf:                                        1.00E-05
                        eps_scf_history:                                0.00E+00
                        eps_diis:                                       1.00E-01
                        eps_eigval:                                     1.00E-05
                        --------------------------------------------------------
                        level_shift [a.u.]:                                 0.00
                        --------------------------------------------------------
                        No outer SCF

 MD_PAR| Molecular dynamics protocol (MD input parameters)
 MD_PAR| Ensemble type                                                       NVE
 MD_PAR| Number of time steps                                                 10
 MD_PAR| Time step [fs]                                                 0.500000
 MD_PAR| Temperature [K]                                              300.000000
 MD_PAR| Temperature tolerance [K]                                      0.000000
 MD_PAR| Print MD information every                                    1 step(s)
 MD_PAR| File type   Print frequency [steps]                          File names
 MD_PAR| Coordinates          1                                 H2O-64-pos-1.xyz
 MD_PAR| Velocities           1                                 H2O-64-vel-1.xyz
 MD_PAR| Energies             1                                    H2O-64-1.ener
 MD_PAR| Dump                20                                 H2O-64-1.restart

 ROT| Rotational analysis information
 ROT| Principal axes and moments of inertia [a.u.]
 ROT|                           1                   2                   3
 ROT| Eigenvalues      1.74175352612E+08   1.87507692273E+08   1.99545122867E+08
 ROT|      x             -0.734964520432      0.242599134404      0.633224141748
 ROT|      y             -0.044883649946      0.914361711697     -0.402402930096
 ROT|      z             -0.676618512660     -0.324173287254     -0.661134682313
 ROT| Number of rotovibrational vectors                                        6

 DOF| Calculation of degrees of freedom
 DOF| Number of atoms                                                        192
 DOF| Number of intramolecular constraints                                     0
 DOF| Number of intermolecular constraints                                     0
 DOF| Invariants (translations + rotations)                                    3
 DOF| Degrees of freedom                                                     573

 DOF| Restraints information
 DOF| Number of intramolecular restraints                                      0
 DOF| Number of intermolecular restraints                                      0

 MD_VEL| Velocities initialization
 MD_VEL| Initial temperature [K]                                      300.000000
 MD_VEL| COM velocity            -0.0000000000    -0.0000000000    -0.0000000000

 Number of electrons:                                                        512
 Number of occupied orbitals:                                                256
 Number of molecular orbitals:                                               256

 Number of orbital functions:                                               2560
 Number of independent orbital functions:                                   2560

 Extrapolation method: initial_guess


 SCF WAVEFUNCTION OPTIMIZATION

  ----------------------------------- OT ---------------------------------------
  Minimizer      : DIIS                : direct inversion
                                         in the iterative subspace
                                         using   7 DIIS vectors
                                         safer DIIS on
  Preconditioner : FULL_KINETIC        : inversion of T + eS
  Precond_solver : DEFAULT
  stepsize       :    0.15000000                  energy_gap     :    0.20000000
  eps_taylor     :   0.10000E-15                  max_taylor     :             4
  ----------------------------------- OT ---------------------------------------

  Step     Update method      Time    Convergence         Total energy    Change
  ------------------------------------------------------------------------------
     1 OT DIIS     0.15E+00    0.9     0.01332027     -1059.3825086354 -1.06E+03
     2 OT DIIS     0.15E+00    0.1     0.00868183     -1073.0837986870 -1.37E+01
     3 OT DIIS     0.15E+00    0.1     0.00608177     -1082.3329453028 -9.25E+00
     4 OT DIIS     0.15E+00    0.1     0.00420419     -1088.9991950661 -6.67E+00
     5 OT DIIS     0.15E+00    0.1     0.00319228     -1092.5975699473 -3.60E+00
     6 OT DIIS     0.15E+00    0.1     0.00242089     -1095.2728740329 -2.68E+00
     7 OT DIIS     0.15E+00    0.1     0.00180823     -1097.1827113587 -1.91E+00
     8 OT DIIS     0.15E+00    0.1     0.00136563     -1098.4047634830 -1.22E+00
     9 OT DIIS     0.15E+00    0.1     0.00107154     -1099.0957255862 -6.91E-01
    10 OT DIIS     0.15E+00    0.1     0.00085958     -1099.5568480761 -4.61E-01
    11 OT DIIS     0.15E+00    0.1     0.00070902     -1099.8674347814 -3.11E-01
    12 OT DIIS     0.15E+00    0.1     0.00059349     -1100.0778295692 -2.10E-01
    13 OT DIIS     0.15E+00    0.1     0.00050949     -1100.2324066357 -1.55E-01
    14 OT DIIS     0.15E+00    0.1     0.00044833     -1100.3361498733 -1.04E-01
    15 OT DIIS     0.15E+00    0.1     0.00039690     -1100.4341575919 -9.80E-02
    16 OT DIIS     0.15E+00    0.1     0.00035862     -1100.5038829651 -6.97E-02
    17 OT DIIS     0.15E+00    0.1     0.00034534     -1100.5572960102 -5.34E-02
    18 OT DIIS     0.15E+00    0.1     0.00034139     -1100.5793052412 -2.20E-02
    19 OT DIIS     0.15E+00    0.1     0.00033463     -1100.5947747647 -1.55E-02
    20 OT SD       0.15E+00    0.1     0.00033658     -1100.6056259094 -1.09E-02
    21 OT DIIS     0.15E+00    0.1     0.00033500     -1100.6167318134 -1.11E-02
    22 OT DIIS     0.15E+00    0.1     0.00032752     -1100.6181770013 -1.45E-03
    23 OT DIIS     0.15E+00    0.1     0.00032184     -1100.6243784233 -6.20E-03
    24 OT DIIS     0.15E+00    0.1     0.00030944     -1100.6371107281 -1.27E-02
    25 OT SD       0.15E+00    0.1     0.00030022     -1100.6455937723 -8.48E-03
    26 OT DIIS     0.15E+00    0.1     0.00029911     -1100.6544327620 -8.84E-03
    27 OT DIIS     0.15E+00    0.1     0.00028893     -1100.6591651031 -4.73E-03
    28 OT SD       0.15E+00    0.1     0.00028473     -1100.6665449234 -7.38E-03
    29 OT SD       0.15E+00    0.1     0.00028442     -1100.6745059988 -7.96E-03
    30 OT SD       0.15E+00    0.1     0.00028480     -1100.6824615830 -7.96E-03
    31 OT SD       0.15E+00    0.1     0.00028544     -1100.6904429284 -7.98E-03
    32 OT DIIS     0.15E+00    0.1     0.00028617     -1100.6984620163 -8.02E-03
    33 OT SD       0.15E+00    0.1     0.00033211     -1100.7435544695 -4.51E-02
    34 OT SD       0.15E+00    0.1     0.00031462     -1100.7540544100 -1.05E-02
    35 OT SD       0.15E+00    0.1     0.00030588     -1100.7636302755 -9.58E-03
    36 OT SD       0.15E+00    0.1     0.00030057     -1100.7727389543 -9.11E-03
    37 OT SD       0.15E+00    0.1     0.00029679     -1100.7815597224 -8.82E-03
    38 OT SD       0.15E+00    0.1     0.00029367     -1100.7901709572 -8.61E-03
    39 OT DIIS     0.15E+00    0.1     0.00029082     -1100.7986066852 -8.44E-03
    40 OT SD       0.15E+00    0.1     0.00016833     -1100.9875339779 -1.89E-01
    41 OT DIIS     0.15E+00    0.1     0.00014750     -1100.9900984662 -2.56E-03
    42 OT DIIS     0.15E+00    0.1     0.00023356     -1100.9860321890  4.07E-03
    43 OT DIIS     0.15E+00    0.1     0.00017589     -1100.9988983832 -1.29E-02
    44 OT DIIS     0.15E+00    0.1     0.00022227     -1101.0010807322 -2.18E-03
    45 OT DIIS     0.15E+00    0.1     0.00015342     -1101.0160489383 -1.50E-02
    46 OT DIIS     0.15E+00    0.1     0.00005874     -1101.0255694168 -9.52E-03
    47 OT DIIS     0.15E+00    0.1     0.00007361     -1101.0255456256  2.38E-05
    48 OT DIIS     0.15E+00    0.1     0.00005773     -1101.0267770426 -1.23E-03
    49 OT DIIS     0.15E+00    0.1     0.00005383     -1101.0275708712 -7.94E-04
    50 OT DIIS     0.15E+00    0.1     0.00004288     -1101.0287871472 -1.22E-03

  Leaving inner SCF loop after reaching    50 steps.


  Electronic density on regular grids:       -512.0000015468       -0.0000015468
  Core density on regular grids:              512.0000000045        0.0000000045
  Total charge density on r-space grids:       -0.0000015423
  Total charge density g-space grids:          -0.0000015423

  Overlap energy of the core charge distribution:               0.00000562599749
  Self energy of the core charge distribution:              -2805.30499493854950
  Core Hamiltonian energy:                                    825.29378313701000
  Hartree energy:                                            1145.26167488863803
  Exchange-correlation energy:                               -266.27925586025350

  Total energy:                                             -1101.02878714715757

 *** WARNING in qs_scf.F:576 :: SCF run NOT converged ***


 ENERGY| Total FORCE_EVAL ( QS ) energy [a.u.]:            -1101.031005888889013

 MD_INI| MD initialization
 MD_INI| Potential energy [hartree]                          -0.110103100589E+04
 MD_INI| Kinetic energy [hartree]                             0.272187778755E+00
 MD_INI| Temperature [K]                                              300.000000
 MD_INI| Cell volume [bohr^3]                                 1.290954213209E+04
 MD_INI| Cell volume [ang^3]                                  1.912996750996E+03
 MD_INI| Cell lengths [bohr]      2.34586823E+01  2.34586823E+01  2.34586823E+01
 MD_INI| Cell lengths [ang]       1.24138000E+01  1.24138000E+01  1.24138000E+01
 MD_INI| Cell angles [deg]        9.00000000E+01  9.00000000E+01  9.00000000E+01

 Number of electrons:                                                        512
 Number of occupied orbitals:                                                256
 Number of molecular orbitals:                                               256

 Number of orbital functions:                                               2560
 Number of independent orbital functions:                                   2560

 Extrapolation method: PS Nth order
 Extrapolation order:  0


 SCF WAVEFUNCTION OPTIMIZATION

  ----------------------------------- OT ---------------------------------------
  Minimizer      : DIIS                : direct inversion
                                         in the iterative subspace
                                         using   7 DIIS vectors
                                         safer DIIS on
  Preconditioner : FULL_KINETIC        : inversion of T + eS
  Precond_solver : DEFAULT
  stepsize       :    0.15000000                  energy_gap     :    0.20000000
  eps_taylor     :   0.10000E-15                  max_taylor     :             4
  ----------------------------------- OT ---------------------------------------

  Step     Update method      Time    Convergence         Total energy    Change
  ------------------------------------------------------------------------------
     1 OT DIIS     0.15E+00    0.1     0.00024950     -1101.0278021259 -1.10E+03
     2 OT DIIS     0.15E+00    0.1     0.00016075     -1101.0327084348 -4.91E-03
     3 OT DIIS     0.15E+00    0.1     0.00009051     -1101.0362859404 -3.58E-03
     4 OT DIIS     0.15E+00    0.1     0.00006200     -1101.0377275198 -1.44E-03
     5 OT DIIS     0.15E+00    0.1     0.00003797     -1101.0386877144 -9.60E-04
     6 OT DIIS     0.15E+00    0.1     0.00002205     -1101.0391017420 -4.14E-04
     7 OT DIIS     0.15E+00    0.1     0.00001260     -1101.0392355422 -1.34E-04
     8 OT DIIS     0.15E+00    0.1     0.00000723     -1101.0392767847 -4.12E-05

  *** SCF run converged in     8 steps ***


  Electronic density on regular grids:       -512.0000014905       -0.0000014905
  Core density on regular grids:              511.9999999975       -0.0000000025
  Total charge density on r-space grids:       -0.0000014930
  Total charge density g-space grids:          -0.0000014930

  Overlap energy of the core charge distribution:               0.00000554074576
  Self energy of the core charge distribution:              -2805.30499493854950
  Core Hamiltonian energy:                                    824.99709644251243
  Hartree energy:                                            1145.47089262750387
  Exchange-correlation energy:                               -266.20227645693137

  Total energy:                                             -1101.03927678471882

 ENERGY| Total FORCE_EVAL ( QS ) energy [a.u.]:            -1101.039289567772357

 MD| ***************************************************************************
 MD| Step number                                                               1
 MD| Time [fs]                                                          0.500000
 MD| Conserved quantity [hartree]                            -0.110076554067E+04
 MD| ---------------------------------------------------------------------------
 MD|                                          Instantaneous             Averages
 MD| CPU time per MD step [s]                     12.615409            12.615409
 MD| Energy drift per atom [K]          -0.110563238138E+02   0.000000000000E+00
 MD| Potential energy [hartree]         -0.110103928957E+04  -0.110103928957E+04
 MD| Kinetic energy [hartree]            0.273748897147E+00   0.273748897147E+00
 MD| Temperature [K]                             301.720634           301.720634
 MD| ***************************************************************************

 Number of electrons:                                                        512
 Number of occupied orbitals:                                                256
 Number of molecular orbitals:                                               256

 Number of orbital functions:                                               2560
 Number of independent orbital functions:                                   2560

 Extrapolation method: PS Nth order
 Extrapolation order:  1


 SCF WAVEFUNCTION OPTIMIZATION

  ----------------------------------- OT ---------------------------------------
  Minimizer      : DIIS                : direct inversion
                                         in the iterative subspace
                                         using   7 DIIS vectors
                                         safer DIIS on
  Preconditioner : FULL_KINETIC        : inversion of T + eS
  Precond_solver : DEFAULT
  stepsize       :    0.15000000                  energy_gap     :    0.20000000
  eps_taylor     :   0.10000E-15                  max_taylor     :             4
  ----------------------------------- OT ---------------------------------------

  Step     Update method      Time    Convergence         Total energy    Change
  ------------------------------------------------------------------------------
     1 OT DIIS     0.15E+00    0.1     0.00018188     -1101.0453203603 -1.10E+03
     2 OT DIIS     0.15E+00    0.1     0.00012504     -1101.0480047349 -2.68E-03
     3 OT DIIS     0.15E+00    0.1     0.00007518     -1101.0503824746 -2.38E-03
     4 OT DIIS     0.15E+00    0.1     0.00005150     -1101.0514775398 -1.10E-03
     5 OT DIIS     0.15E+00    0.1     0.00002882     -1101.0522243275 -7.47E-04
     6 OT DIIS     0.15E+00    0.1     0.00001713     -1101.0524515200 -2.27E-04
     7 OT DIIS     0.15E+00    0.1     0.00000972     -1101.0525297399 -7.82E-05

  *** SCF run converged in     7 steps ***


  Electronic density on regular grids:       -512.0000014194       -0.0000014194
  Core density on regular grids:              511.9999999954       -0.0000000046
  Total charge density on r-space grids:       -0.0000014240
  Total charge density g-space grids:          -0.0000014240

  Overlap energy of the core charge distribution:               0.00000508717596
  Self energy of the core charge distribution:              -2805.30499493854950
  Core Hamiltonian energy:                                    823.99099462385516
  Hartree energy:                                            1146.19319039099219
  Exchange-correlation energy:                               -265.93172490334973

  Total energy:                                             -1101.05252973987604

 ENERGY| Total FORCE_EVAL ( QS ) energy [a.u.]:            -1101.052553911872110

 MD| ***************************************************************************
 MD| Step number                                                               2
 MD| Time [fs]                                                          1.000000
 MD| Conserved quantity [hartree]                            -0.110076574941E+04
 MD| ---------------------------------------------------------------------------
 MD|                                          Instantaneous             Averages
 MD| CPU time per MD step [s]                      1.061019             6.838214
 MD| Energy drift per atom [K]          -0.113996294653E+02  -0.569981473263E+01
 MD| Potential energy [hartree]         -0.110105255391E+04  -0.110104592174E+04
 MD| Kinetic energy [hartree]            0.286804501611E+00   0.280276699379E+00
 MD| Temperature [K]                             316.110264           308.915449
 MD| ***************************************************************************

 Number of electrons:                                                        512
 Number of occupied orbitals:                                                256
 Number of molecular orbitals:                                               256

 Number of orbital functions:                                               2560
 Number of independent orbital functions:                                   2560

 Extrapolation method: PS Nth order
 Extrapolation order:  2


 SCF WAVEFUNCTION OPTIMIZATION

  ----------------------------------- OT ---------------------------------------
  Minimizer      : DIIS                : direct inversion
                                         in the iterative subspace
                                         using   7 DIIS vectors
                                         safer DIIS on
  Preconditioner : FULL_KINETIC        : inversion of T + eS
  Precond_solver : DEFAULT
  stepsize       :    0.15000000                  energy_gap     :    0.20000000
  eps_taylor     :   0.10000E-15                  max_taylor     :             4
  ----------------------------------- OT ---------------------------------------

  Step     Update method      Time    Convergence         Total energy    Change
  ------------------------------------------------------------------------------
     1 OT DIIS     0.15E+00    0.1     0.00016600     -1101.0673391766 -1.10E+03
     2 OT DIIS     0.15E+00    0.1     0.00011756     -1101.0696099927 -2.27E-03
     3 OT DIIS     0.15E+00    0.1     0.00007011     -1101.0718400828 -2.23E-03
     4 OT DIIS     0.15E+00    0.1     0.00004687     -1101.0728158232 -9.76E-04
     5 OT DIIS     0.15E+00    0.1     0.00002506     -1101.0734352383 -6.19E-04
     6 OT DIIS     0.15E+00    0.1     0.00001527     -1101.0735929560 -1.58E-04
     7 OT DIIS     0.15E+00    0.1     0.00000857     -1101.0736544830 -6.15E-05

  *** SCF run converged in     7 steps ***


  Electronic density on regular grids:       -512.0000013333       -0.0000013333
  Core density on regular grids:              511.9999999979       -0.0000000021
  Total charge density on r-space grids:       -0.0000013354
  Total charge density g-space grids:          -0.0000013354

  Overlap energy of the core charge distribution:               0.00000421676033
  Self energy of the core charge distribution:              -2805.30499493854950
  Core Hamiltonian energy:                                    822.43891672548193
  Hartree energy:                                            1147.30180967803472
  Exchange-correlation energy:                               -265.50939016472000

  Total energy:                                             -1101.07365448299242

 ENERGY| Total FORCE_EVAL ( QS ) energy [a.u.]:            -1101.073673410229048

 MD| ***************************************************************************
 MD| Step number                                                               3
 MD| Time [fs]                                                          1.500000
 MD| Conserved quantity [hartree]                            -0.110076623800E+04
 MD| ---------------------------------------------------------------------------
 MD|                                          Instantaneous             Averages
 MD| CPU time per MD step [s]                      1.051277             4.909235
 MD| Energy drift per atom [K]          -0.122031985326E+02  -0.786760933263E+01
 MD| Potential energy [hartree]         -0.110107367341E+04  -0.110105517230E+04
 MD| Kinetic energy [hartree]            0.307435407036E+00   0.289329601931E+00
 MD| Temperature [K]                             338.849241           318.893379
 MD| ***************************************************************************

 Number of electrons:                                                        512
 Number of occupied orbitals:                                                256
 Number of molecular orbitals:                                               256

 Number of orbital functions:                                               2560
 Number of independent orbital functions:                                   2560

 Extrapolation method: PS Nth order
 Extrapolation order:  3


 SCF WAVEFUNCTION OPTIMIZATION

  ----------------------------------- OT ---------------------------------------
  Minimizer      : DIIS                : direct inversion
                                         in the iterative subspace
                                         using   7 DIIS vectors
                                         safer DIIS on
  Preconditioner : FULL_KINETIC        : inversion of T + eS
  Precond_solver : DEFAULT
  stepsize       :    0.15000000                  energy_gap     :    0.20000000
  eps_taylor     :   0.10000E-15                  max_taylor     :             4
  ----------------------------------- OT ---------------------------------------

  Step     Update method      Time    Convergence         Total energy    Change
  ------------------------------------------------------------------------------
     1 OT DIIS     0.15E+00    0.1     0.00016901     -1101.0882805768 -1.10E+03
     2 OT DIIS     0.15E+00    0.1     0.00012004     -1101.0906385620 -2.36E-03
     3 OT DIIS     0.15E+00    0.1     0.00006991     -1101.0929758701 -2.34E-03
     4 OT DIIS     0.15E+00    0.1     0.00004370     -1101.0939496869 -9.74E-04
     5 OT DIIS     0.15E+00    0.1     0.00002172     -1101.0944515116 -5.02E-04
     6 OT DIIS     0.15E+00    0.1     0.00001364     -1101.0945537894 -1.02E-04
     7 OT DIIS     0.15E+00    0.1     0.00000750     -1101.0946004843 -4.67E-05

  *** SCF run converged in     7 steps ***


  Electronic density on regular grids:       -512.0000012177       -0.0000012177
  Core density on regular grids:              512.0000000002        0.0000000002
  Total charge density on r-space grids:       -0.0000012176
  Total charge density g-space grids:          -0.0000012176

  Overlap energy of the core charge distribution:               0.00000308048317
  Self energy of the core charge distribution:              -2805.30499493854950
  Core Hamiltonian energy:                                    820.48664247921079
  Hartree energy:                                            1148.70443626893575
  Exchange-correlation energy:                               -264.98068737440343

  Total energy:                                             -1101.09460048432334

 ENERGY| Total FORCE_EVAL ( QS ) energy [a.u.]:            -1101.094614862854087

 MD| ***************************************************************************
 MD| Step number                                                               4
 MD| Time [fs]                                                          2.000000
 MD| Conserved quantity [hartree]                            -0.110076681835E+04
 MD| ---------------------------------------------------------------------------
 MD|                                          Instantaneous             Averages
 MD| CPU time per MD step [s]                      0.961653             3.922340
 MD| Energy drift per atom [K]          -0.131576704185E+02  -0.919012460410E+01
 MD| Potential energy [hartree]         -0.110109461486E+04  -0.110106503294E+04
 MD| Kinetic energy [hartree]            0.327796513509E+00   0.298946329826E+00
 MD| Temperature [K]                             361.290850           329.492747
 MD| ***************************************************************************

 Number of electrons:                                                        512
 Number of occupied orbitals:                                                256
 Number of molecular orbitals:                                               256

 Number of orbital functions:                                               2560
 Number of independent orbital functions:                                   2560

 Extrapolation method: PS Nth order
 Extrapolation order:  3


 SCF WAVEFUNCTION OPTIMIZATION

  ----------------------------------- OT ---------------------------------------
  Minimizer      : DIIS                : direct inversion
                                         in the iterative subspace
                                         using   7 DIIS vectors
                                         safer DIIS on
  Preconditioner : FULL_KINETIC        : inversion of T + eS
  Precond_solver : DEFAULT
  stepsize       :    0.15000000                  energy_gap     :    0.20000000
  eps_taylor     :   0.10000E-15                  max_taylor     :             4
  ----------------------------------- OT ---------------------------------------

  Step     Update method      Time    Convergence         Total energy    Change
  ------------------------------------------------------------------------------
     1 OT DIIS     0.15E+00    0.1     0.00006426     -1101.1044107587 -1.10E+03
     2 OT DIIS     0.15E+00    0.1     0.00005316     -1101.1047785953 -3.68E-04
     3 OT DIIS     0.15E+00    0.1     0.00003233     -1101.1054482933 -6.70E-04
     4 OT DIIS     0.15E+00    0.1     0.00002194     -1101.1057147469 -2.66E-04
     5 OT DIIS     0.15E+00    0.1     0.00001212     -1101.1058730821 -1.58E-04
     6 OT DIIS     0.15E+00    0.1     0.00000783     -1101.1059135917 -4.05E-05

  *** SCF run converged in     6 steps ***


  Electronic density on regular grids:       -512.0000010688       -0.0000010688
  Core density on regular grids:              511.9999999989       -0.0000000011
  Total charge density on r-space grids:       -0.0000010699
  Total charge density g-space grids:          -0.0000010699

  Overlap energy of the core charge distribution:               0.00000200945098
  Self energy of the core charge distribution:              -2805.30499493854950
  Core Hamiltonian energy:                                    818.39013702361387
  Hartree energy:                                            1150.21806280674127
  Exchange-correlation energy:                               -264.40912049294496

  Total energy:                                             -1101.10591359168848

 ENERGY| Total FORCE_EVAL ( QS ) energy [a.u.]:            -1101.105932126502694

 MD| ***************************************************************************
 MD| Step number                                                               5
 MD| Time [fs]                                                          2.500000
 MD| Conserved quantity [hartree]                            -0.110076715531E+04
 MD| ---------------------------------------------------------------------------
 MD|                                          Instantaneous             Averages
 MD| CPU time per MD step [s]                      0.885939             3.315059
 MD| Energy drift per atom [K]          -0.137118611630E+02  -0.100944719159E+02
 MD| Potential energy [hartree]         -0.110110593213E+04  -0.110107321278E+04
 MD| Kinetic energy [hartree]            0.338776813365E+00   0.306912426534E+00
 MD| Temperature [K]                             373.393120           338.272822
 MD| ***************************************************************************

 Number of electrons:                                                        512
 Number of occupied orbitals:                                                256
 Number of molecular orbitals:                                               256

 Number of orbital functions:                                               2560
 Number of independent orbital functions:                                   2560

 Extrapolation method: PS Nth order
 Extrapolation order:  3


 SCF WAVEFUNCTION OPTIMIZATION

  ----------------------------------- OT ---------------------------------------
  Minimizer      : DIIS                : direct inversion
                                         in the iterative subspace
                                         using   7 DIIS vectors
                                         safer DIIS on
  Preconditioner : FULL_KINETIC        : inversion of T + eS
  Precond_solver : DEFAULT
  stepsize       :    0.15000000                  energy_gap     :    0.20000000
  eps_taylor     :   0.10000E-15                  max_taylor     :             4
  ----------------------------------- OT ---------------------------------------

  Step     Update method      Time    Convergence         Total energy    Change
  ------------------------------------------------------------------------------
     1 OT DIIS     0.15E+00    0.1     0.00004706     -1101.1011338470 -1.10E+03
     2 OT DIIS     0.15E+00    0.1     0.00003814     -1101.1013292817 -1.95E-04
     3 OT DIIS     0.15E+00    0.1     0.00002079     -1101.1016568551 -3.28E-04
     4 OT DIIS     0.15E+00    0.1     0.00001223     -1101.1017643299 -1.07E-04
     5 OT DIIS     0.15E+00    0.1     0.00000730     -1101.1018023287 -3.80E-05

  *** SCF run converged in     5 steps ***


  Electronic density on regular grids:       -512.0000009008       -0.0000009008
  Core density on regular grids:              511.9999999941       -0.0000000059
  Total charge density on r-space grids:       -0.0000009067
  Total charge density g-space grids:          -0.0000009067

  Overlap energy of the core charge distribution:               0.00000123724772
  Self energy of the core charge distribution:              -2805.30499493854950
  Core Hamiltonian energy:                                    816.35636903929799
  Hartree energy:                                            1151.70037347694415
  Exchange-correlation energy:                               -263.85355114368485

  Total energy:                                             -1101.10180232874427

 ENERGY| Total FORCE_EVAL ( QS ) energy [a.u.]:            -1101.101815171090493

 MD| ***************************************************************************
 MD| Step number                                                               6
 MD| Time [fs]                                                          3.000000
 MD| Conserved quantity [hartree]                            -0.110076702437E+04
 MD| ---------------------------------------------------------------------------
 MD|                                          Instantaneous             Averages
 MD| CPU time per MD step [s]                      0.714058             2.881559
 MD| Energy drift per atom [K]          -0.134964998482E+02  -0.106614765713E+02
 MD| Potential energy [hartree]         -0.110110181517E+04  -0.110107797984E+04
 MD| Kinetic energy [hartree]            0.334790803779E+00   0.311558822741E+00
 MD| Temperature [K]                             368.999819           343.393988
 MD| ***************************************************************************

 Number of electrons:                                                        512
 Number of occupied orbitals:                                                256
 Number of molecular orbitals:                                               256

 Number of orbital functions:                                               2560
 Number of independent orbital functions:                                   2560

 Extrapolation method: PS Nth order
 Extrapolation order:  3


 SCF WAVEFUNCTION OPTIMIZATION

  ----------------------------------- OT ---------------------------------------
  Minimizer      : DIIS                : direct inversion
                                         in the iterative subspace
                                         using   7 DIIS vectors
                                         safer DIIS on
  Preconditioner : FULL_KINETIC        : inversion of T + eS
  Precond_solver : DEFAULT
  stepsize       :    0.15000000                  energy_gap     :    0.20000000
  eps_taylor     :   0.10000E-15                  max_taylor     :             4
  ----------------------------------- OT ---------------------------------------

  Step     Update method      Time    Convergence         Total energy    Change
  ------------------------------------------------------------------------------
     1 OT DIIS     0.15E+00    0.1     0.00004011     -1101.0829341795 -1.10E+03
     2 OT DIIS     0.15E+00    0.1     0.00003295     -1101.0830774902 -1.43E-04
     3 OT DIIS     0.15E+00    0.1     0.00001490     -1101.0833518520 -2.74E-04
     4 OT DIIS     0.15E+00    0.1     0.00000897     -1101.0834070937 -5.52E-05

  *** SCF run converged in     4 steps ***


  Electronic density on regular grids:       -512.0000007415       -0.0000007415
  Core density on regular grids:              511.9999999907       -0.0000000093
  Total charge density on r-space grids:       -0.0000007508
  Total charge density g-space grids:          -0.0000007508

  Overlap energy of the core charge distribution:               0.00000077877945
  Self energy of the core charge distribution:              -2805.30499493854950
  Core Hamiltonian energy:                                    814.58618706640732
  Hartree energy:                                            1153.00177254485607
  Exchange-correlation energy:                               -263.36637254520735

  Total energy:                                             -1101.08340709371396

 ENERGY| Total FORCE_EVAL ( QS ) energy [a.u.]:            -1101.083423173485698

 MD| ***************************************************************************
 MD| Step number                                                               7
 MD| Time [fs]                                                          3.500000
 MD| Conserved quantity [hartree]                            -0.110076647587E+04
 MD| ---------------------------------------------------------------------------
 MD|                                          Instantaneous             Averages
 MD| CPU time per MD step [s]                      0.619482             2.558405
 MD| Energy drift per atom [K]          -0.125944111176E+02  -0.109376100779E+02
 MD| Potential energy [hartree]         -0.110108342317E+04  -0.110107875746E+04
 MD| Kinetic energy [hartree]            0.316947301874E+00   0.312328605474E+00
 MD| Temperature [K]                             349.333063           344.242427
 MD| ***************************************************************************

 Number of electrons:                                                        512
 Number of occupied orbitals:                                                256
 Number of molecular orbitals:                                               256

 Number of orbital functions:                                               2560
 Number of independent orbital functions:                                   2560

 Extrapolation method: PS Nth order
 Extrapolation order:  3


 SCF WAVEFUNCTION OPTIMIZATION

  ----------------------------------- OT ---------------------------------------
  Minimizer      : DIIS                : direct inversion
                                         in the iterative subspace
                                         using   7 DIIS vectors
                                         safer DIIS on
  Preconditioner : FULL_KINETIC        : inversion of T + eS
  Precond_solver : DEFAULT
  stepsize       :    0.15000000                  energy_gap     :    0.20000000
  eps_taylor     :   0.10000E-15                  max_taylor     :             4
  ----------------------------------- OT ---------------------------------------

  Step     Update method      Time    Convergence         Total energy    Change
  ------------------------------------------------------------------------------
     1 OT DIIS     0.15E+00    0.1     0.00003934     -1101.0575992328 -1.10E+03
     2 OT DIIS     0.15E+00    0.1     0.00003220     -1101.0577371550 -1.38E-04
     3 OT DIIS     0.15E+00    0.1     0.00001302     -1101.0580145204 -2.77E-04
     4 OT DIIS     0.15E+00    0.1     0.00000937     -1101.0580508187 -3.63E-05

  *** SCF run converged in     4 steps ***


  Electronic density on regular grids:       -512.0000006088       -0.0000006088
  Core density on regular grids:              511.9999999927       -0.0000000073
  Total charge density on r-space grids:       -0.0000006162
  Total charge density g-space grids:          -0.0000006162

  Overlap energy of the core charge distribution:               0.00000054143075
  Self energy of the core charge distribution:              -2805.30499493854950
  Core Hamiltonian energy:                                    813.21035129826760
  Hartree energy:                                            1154.02258435848853
  Exchange-correlation energy:                               -262.98599207829159

  Total energy:                                             -1101.05805081865401

 ENERGY| Total FORCE_EVAL ( QS ) energy [a.u.]:            -1101.058072635293229

 MD| ***************************************************************************
 MD| Step number                                                               8
 MD| Time [fs]                                                          4.000000
 MD| Conserved quantity [hartree]                            -0.110076580471E+04
 MD| ---------------------------------------------------------------------------
 MD|                                          Instantaneous             Averages
 MD| CPU time per MD step [s]                      0.633001             2.317730
 MD| Energy drift per atom [K]          -0.114905721425E+02  -0.110067303359E+02
 MD| Potential energy [hartree]         -0.110105807264E+04  -0.110107617186E+04
 MD| Kinetic energy [hartree]            0.292267929288E+00   0.309821020951E+00
 MD| Temperature [K]                             322.131946           341.478617
 MD| ***************************************************************************

 Number of electrons:                                                        512
 Number of occupied orbitals:                                                256
 Number of molecular orbitals:                                               256

 Number of orbital functions:                                               2560
 Number of independent orbital functions:                                   2560

 Extrapolation method: PS Nth order
 Extrapolation order:  3


 SCF WAVEFUNCTION OPTIMIZATION

  ----------------------------------- OT ---------------------------------------
  Minimizer      : DIIS                : direct inversion
                                         in the iterative subspace
                                         using   7 DIIS vectors
                                         safer DIIS on
  Preconditioner : FULL_KINETIC        : inversion of T + eS
  Precond_solver : DEFAULT
  stepsize       :    0.15000000                  energy_gap     :    0.20000000
  eps_taylor     :   0.10000E-15                  max_taylor     :             4
  ----------------------------------- OT ---------------------------------------

  Step     Update method      Time    Convergence         Total energy    Change
  ------------------------------------------------------------------------------
     1 OT DIIS     0.15E+00    0.1     0.00004063     -1101.0348903338 -1.10E+03
     2 OT DIIS     0.15E+00    0.1     0.00003307     -1101.0350368210 -1.46E-04
     3 OT DIIS     0.15E+00    0.1     0.00001525     -1101.0353096156 -2.73E-04
     4 OT DIIS     0.15E+00    0.1     0.00001093     -1101.0353590077 -4.94E-05
     5 OT DIIS     0.15E+00    0.1     0.00000786     -1101.0353880637 -2.91E-05

  *** SCF run converged in     5 steps ***


  Electronic density on regular grids:       -512.0000004818       -0.0000004818
  Core density on regular grids:              511.9999999968       -0.0000000032
  Total charge density on r-space grids:       -0.0000004851
  Total charge density g-space grids:          -0.0000004851

  Overlap energy of the core charge distribution:               0.00000043858939
  Self energy of the core charge distribution:              -2805.30499493854950
  Core Hamiltonian energy:                                    812.31303150734561
  Hartree energy:                                            1154.69416732892296
  Exchange-correlation energy:                               -262.73759239997651

  Total energy:                                             -1101.03538806366805

 ENERGY| Total FORCE_EVAL ( QS ) energy [a.u.]:            -1101.035410328180888

 MD| ***************************************************************************
 MD| Step number                                                               9
 MD| Time [fs]                                                          4.500000
 MD| Conserved quantity [hartree]                            -0.110076529419E+04
 MD| ---------------------------------------------------------------------------
 MD|                                          Instantaneous             Averages
 MD| CPU time per MD step [s]                      0.664139             2.133998
 MD| Energy drift per atom [K]          -0.106509447336E+02  -0.109671986023E+02
 MD| Potential energy [hartree]         -0.110103541033E+04  -0.110107164280E+04
 MD| Kinetic energy [hartree]            0.270116139608E+00   0.305409367469E+00
 MD| Temperature [K]                             297.716680           336.616180
 MD| ***************************************************************************

 Number of electrons:                                                        512
 Number of occupied orbitals:                                                256
 Number of molecular orbitals:                                               256

 Number of orbital functions:                                               2560
 Number of independent orbital functions:                                   2560

 Extrapolation method: PS Nth order
 Extrapolation order:  3


 SCF WAVEFUNCTION OPTIMIZATION

  ----------------------------------- OT ---------------------------------------
  Minimizer      : DIIS                : direct inversion
                                         in the iterative subspace
                                         using   7 DIIS vectors
                                         safer DIIS on
  Preconditioner : FULL_KINETIC        : inversion of T + eS
  Precond_solver : DEFAULT
  stepsize       :    0.15000000                  energy_gap     :    0.20000000
  eps_taylor     :   0.10000E-15                  max_taylor     :             4
  ----------------------------------- OT ---------------------------------------

  Step     Update method      Time    Convergence         Total energy    Change
  ------------------------------------------------------------------------------
     1 OT DIIS     0.15E+00    0.1     0.00004272     -1101.0227184493 -1.10E+03
     2 OT DIIS     0.15E+00    0.1     0.00003547     -1101.0228815316 -1.63E-04
     3 OT DIIS     0.15E+00    0.1     0.00001954     -1101.0231905365 -3.09E-04
     4 OT DIIS     0.15E+00    0.1     0.00001351     -1101.0232865632 -9.60E-05
     5 OT DIIS     0.15E+00    0.1     0.00000909     -1101.0233423605 -5.58E-05

  *** SCF run converged in     5 steps ***


  Electronic density on regular grids:       -512.0000003316       -0.0000003316
  Core density on regular grids:              511.9999999981       -0.0000000019
  Total charge density on r-space grids:       -0.0000003335
  Total charge density g-space grids:          -0.0000003335

  Overlap energy of the core charge distribution:               0.00000042270338
  Self energy of the core charge distribution:              -2805.30499493854950
  Core Hamiltonian energy:                                    811.91272299881246
  Hartree energy:                                            1154.99784984053849
  Exchange-correlation energy:                               -262.62892068404489

  Total energy:                                             -1101.02334236053980

 ENERGY| Total FORCE_EVAL ( QS ) energy [a.u.]:            -1101.023374985770033

 MD| ***************************************************************************
 MD| Step number                                                              10
 MD| Time [fs]                                                          5.000000
 MD| Conserved quantity [hartree]                            -0.110076505584E+04
 MD| ---------------------------------------------------------------------------
 MD|                                          Instantaneous             Averages
 MD| CPU time per MD step [s]                      0.705184             1.991116
 MD| Energy drift per atom [K]          -0.102589392923E+02  -0.108963726713E+02
 MD| Potential energy [hartree]         -0.110102337499E+04  -0.110106681602E+04
 MD| Kinetic energy [hartree]            0.258319147696E+00   0.300700345491E+00
 MD| Temperature [K]                             284.714268           331.425989
 MD| ***************************************************************************

 -------------------------------------------------------------------------------
 -                                                                             -
 -                                DBCSR STATISTICS                             -
 -                                                                             -
 -------------------------------------------------------------------------------
 COUNTER                                    TOTAL       BLAS       SMM       ACC
 flops     9 x    32 x    32            207618048     100.0%      0.0%      0.0%
 flops    22 x    32 x    32            253755392     100.0%      0.0%      0.0%
 flops   120 x    32 x   120           3509452800     100.0%      0.0%      0.0%
 flops   120 x    32 x    98           3582566400     100.0%      0.0%      0.0%
 flops   129 x    32 x   120           3772661760     100.0%      0.0%      0.0%
 flops   129 x    32 x    98           3851258880     100.0%      0.0%      0.0%
 flops   142 x    32 x   120           4152852480     100.0%      0.0%      0.0%
 flops   142 x    32 x    98           4239370240     100.0%      0.0%      0.0%
 flops   173 x    32 x   120           5059461120     100.0%      0.0%      0.0%
 flops   173 x    32 x    98           5164866560     100.0%      0.0%      0.0%
 flops   187 x    32 x   120           5468897280     100.0%      0.0%      0.0%
 flops   187 x    32 x    98           5582832640     100.0%      0.0%      0.0%
 flops   200 x    32 x   120           5849088000     100.0%      0.0%      0.0%
 flops   204 x    32 x   120           5966069760     100.0%      0.0%      0.0%
 flops   200 x    32 x    98           5970944000     100.0%      0.0%      0.0%
 flops   204 x    32 x    98           6090362880     100.0%      0.0%      0.0%
 flops   138 x    32 x   120           8071741440     100.0%      0.0%      0.0%
 flops   120 x    32 x    32           8147435520     100.0%      0.0%      0.0%
 flops   138 x    32 x    98           8239902720     100.0%      0.0%      0.0%
 flops   129 x    32 x    32           8758493184     100.0%      0.0%      0.0%
 flops   120 x    32 x   111           8927170560     100.0%      0.0%      0.0%
 flops   160 x    32 x   120           9358540800     100.0%      0.0%      0.0%
 flops   160 x    32 x    98           9553510400     100.0%      0.0%      0.0%
 flops   129 x    32 x   111           9596708352     100.0%      0.0%      0.0%
 flops   142 x    32 x    32           9641132032     100.0%      0.0%      0.0%
 flops   178 x    32 x   120          10411376640     100.0%      0.0%      0.0%
 flops   142 x    32 x   111          10563818496     100.0%      0.0%      0.0%
 flops   178 x    32 x    98          10628280320     100.0%      0.0%      0.0%
 flops   173 x    32 x    32          11745886208     100.0%      0.0%      0.0%
 flops   187 x    32 x    32          12696420352     100.0%      0.0%      0.0%
 flops   173 x    32 x   111          12870004224     100.0%      0.0%      0.0%
 flops   151 x    32 x   120          13248184320     100.0%      0.0%      0.0%
 flops   151 x    32 x    98          13524188160     100.0%      0.0%      0.0%
 flops   200 x    32 x    32          13579059200     100.0%      0.0%      0.0%
 flops   204 x    32 x    32          13850640384     100.0%      0.0%      0.0%
 flops   187 x    32 x   111          13911507456     100.0%      0.0%      0.0%
 flops   200 x    32 x   111          14878617600     100.0%      0.0%      0.0%
 flops   204 x    32 x   111          15176189952     100.0%      0.0%      0.0%
 flops   138 x    32 x    32          18739101696     100.0%      0.0%      0.0%
 flops   138 x    32 x   111          20532492288     100.0%      0.0%      0.0%
 flops   160 x    32 x    32          21726494720     100.0%      0.0%      0.0%
 flops   160 x    32 x   111          23805788160     100.0%      0.0%      0.0%
 flops   178 x    32 x    32          24170725376     100.0%      0.0%      0.0%
 flops   178 x    32 x   111          26483939328     100.0%      0.0%      0.0%
 flops    32 x    32 x   120          26487029760     100.0%      0.0%      0.0%
 flops    32 x    32 x    32          26877100032     100.0%      0.0%      0.0%
 flops    32 x    32 x    98          27038842880     100.0%      0.0%      0.0%
 flops   151 x    32 x    32          30756569088     100.0%      0.0%      0.0%
 flops   151 x    32 x   111          33700068864     100.0%      0.0%      0.0%
 flops     9 x     9 x    32          44168260608     100.0%      0.0%      0.0%
 flops    22 x     9 x    32          53835724800     100.0%      0.0%      0.0%
 flops     9 x    22 x    32          53885500416     100.0%      0.0%      0.0%
 flops    22 x    22 x    32          67007283200     100.0%      0.0%      0.0%
 flops    32 x    32 x   111          67376381952     100.0%      0.0%      0.0%
 flops     9 x    32 x     9         185405884416     100.0%      0.0%      0.0%
 flops    22 x    32 x     9         227871249408     100.0%      0.0%      0.0%
 flops     9 x    32 x    22         227871249408     100.0%      0.0%      0.0%
 flops    22 x    32 x    22         279130931200     100.0%      0.0%      0.0%
 flops inhomo. stacks                110713896960     100.0%      0.0%      0.0%
 flops total                         1.913685E+12     100.0%      0.0%      0.0%
 flops max/rank                     28.580309E+09     100.0%      0.0%      0.0%
 matmuls inhomo. stacks                    168704     100.0%      0.0%      0.0%
 matmuls total                          101894456     100.0%      0.0%      0.0%
 number of processed stacks               6930144     100.0%      0.0%      0.0%
 average stack size                                    14.7       0.0       0.0
 marketing flops                     2.107592E+12
 -------------------------------------------------------------------------------
 # multiplications                           2286
 max memory usage/rank             230.219776E+06
 # max total images/rank                        3
 # max 3D layers                                1
 # MPI messages exchanged                19312128
 MPI messages size (bytes):
  total size                       653.640204E+09
  min size                           0.000000E+00
  max size                         315.840000E+03
  average size                      33.846098E+03
 MPI breakdown and total messages size (bytes):
             size <=      128            11702360                        0
       128 < size <=     8192             1770600              14504755200
      8192 < size <=    32768             3129216              85448458240
     32768 < size <=   131072              970048              79466332160
    131072 < size <=  4194304             1739904             474223004224
   4194304 < size <= 16777216                   0                        0
  16777216 < size                               0                        0
 -------------------------------------------------------------------------------

 *** WARNING in dbcsr_mm.F:294 :: Using a non-square number of MPI ranks ***
 *** might lead to poor performance. Used ranks: 192 Suggested: 196 400  ***

 -------------------------------------------------------------------------------
 -                                                                             -
 -                      DBCSR MESSAGE PASSING PERFORMANCE                      -
 -                                                                             -
 -------------------------------------------------------------------------------
 ROUTINE             CALLS      AVE VOLUME [Bytes]
 MP_Bcast               59                     12.
 MP_Allreduce        12257                     16.
 MP_Alltoall          8655                  54642.
 MP_ISend           213810                  17969.
 MP_IRecv           212960                  17551.
 -------------------------------------------------------------------------------

 -------------------------------------------------------------------------------
 -                                                                             -
 -                                GRID STATISTICS                              -
 -                                                                             -
 -------------------------------------------------------------------------------
 LP    KERNEL             BACKEND                              COUNT     PERCENT
 1     collocate ortho    REF                               15972172      21.14%
 1     integrate ortho    REF                               15311000      20.26%
 2     integrate ortho    REF                               10510320      13.91%
 2     collocate ortho    REF                                9954176      13.17%
 0     collocate ortho    REF                                8824564      11.68%
 0     integrate ortho    REF                                8009545      10.60%
 3     integrate ortho    REF                                3128060       4.14%
 3     collocate ortho    REF                                2432827       3.22%
 0     collocate general  REF                                 405504       0.54%
 1     integrate general  REF                                 405504       0.54%
 4     integrate ortho    REF                                 398456       0.53%
 4     collocate ortho    REF                                 191318       0.25%
 5     integrate ortho    REF                                  17676       0.02%
 -------------------------------------------------------------------------------

 MEMORY| Estimated peak process memory [MiB]                                 220

 -------------------------------------------------------------------------------
 -                                                                             -
 -                         MESSAGE PASSING PERFORMANCE                         -
 -                                                                             -
 -------------------------------------------------------------------------------

 ROUTINE             CALLS      AVE VOLUME [Bytes]
 MP_Group                4
 MP_Bcast             3683                  62417.
 MP_Allreduce        10181                    323.
 MP_Sync              1532
 MP_Alltoall          2094               24688294.
 MP_ISendRecv        90916                   2760.
 MP_Wait            105424
 MP_comm_split          50
 MP_ISend            25584                  28409.
 MP_IRecv            25584                  28409.
 -------------------------------------------------------------------------------


 -------------------------------------------------------------------------------
 -                                                                             -
 -                           R E F E R E N C E S                               -
 -                                                                             -
 -------------------------------------------------------------------------------
 
 CP2K version 8.2, the CP2K developers group (2021).
 CP2K is freely available from https://www.cp2k.org/ .

 Kuehne,Thomas D.; Iannuzzi,Marcella; Del Ben,Mauro;
 Rybkin,Vladimir V.; Seewald,Patrick; Stein,Frederick; Laino,Teodoro;
 Khaliullin,Rustam Z.; Schuett,Ole; Schiffmann,Florian; Golze,Dorothea;
 Wilhelm,Jan; Chulkov,Sergey; Bani-Hashemian,Mohammad Hossein;
 Weber,Valery; Borstnik,Urban; Taillefumier,Mathieu;
 Jakobovits,Alice Shoshana; Lazzaro,Alfio; Pabst,Hans; Mueller,Tiziano;
 Schade,Robert; Guidon,Manuel; Andermatt,Samuel; Holmberg,Nico;
 Schenter,Gregory K.; Hehn,Anna; Bussy,Augustin; Belleflamme,Fabian;
 Tabacchi,Gloria; Gloess,Andreas; Lass,Michael; Bethune,Iain;
 Mundy,Christopher J.; Plessl,Christian; Watkins,Matt;
 VandeVondele,Joost; Krack,Matthias; Hutter,Juerg. 
 The Journal of Chemical Physics, 152 (19), (2020). 
 CP2K: An electronic structure and molecular dynamics software package -
 Quickstep: Efficient and accurate electronic structure calculations.
 https://doi.org/10.1063/5.0007045

 Schuett, Ole; Messmer, Peter; Hutter, Juerg; VandeVondele, Joost. 
 Electronic Structure Calculations on Graphics Processing Units, John
 Wiley & Sons, Ltd, 173-190 (2016). 
 GPU-Accelerated Sparse Matrix-Matrix Multiplication for
 Linear Scaling Density Functional Theory.
 https://doi.org/10.1002/9781118670712.ch8

 Borstnik, U; VandeVondele, J; Weber, V; Hutter, J. 
 PARALLEL COMPUTING, 40 (5-6), 47-58 (2014). 
 Sparse matrix multiplication: The distributed block-compressed sparse
 row library.
 https://doi.org/10.1016/j.parco.2014.03.012

 Hutter, J; Iannuzzi, M; Schiffmann, F; VandeVondele, J. 
 WIREs Comput Mol Sci., 4 (1), 15-25 (2014). 
 CP2K: atomistic simulations of condensed matter systems.
 https://doi.org/10.1002/wcms.1159

 Marek, A; Blum, V; Johanni, R; Havu, V; Lang, B; Auckenthaler, T;
 Heinecke, A; Bungartz, H; Lederer, H. 
 Journal of Physics: Condensed Matter, 26 (21), (2014). 
 The ELPA library: scalable parallel eigenvalue solutions for
 electronic structure
 theory and computational science.
 https://doi.org/10.1088/0953-8984/26/21/213201

 Krack, M. 
 THEORETICAL CHEMISTRY ACCOUNTS, 114 (1-3), 145-152 (2005). 
 Pseudopotentials for H to Kr optimized for gradient-corrected
 exchange-correlation functionals.
 https://doi.org/10.1007/s00214-005-0655-y

 VandeVondele, J; Krack, M; Mohamed, F; Parrinello, M; Chassaing, T;
 Hutter, J. COMPUTER PHYSICS COMMUNICATIONS, 167 (2), 103-128 (2005). 
 QUICKSTEP: Fast and accurate density functional calculations using a
 mixed Gaussian and plane waves approach.
 https://doi.org/10.1016/j.cpc.2004.12.014

 Frigo, M; Johnson, SG. 
 PROCEEDINGS OF THE IEEE, 93 (2), 216-231 (2005). 
 The design and implementation of FFTW3.
 https://doi.org/10.1109/JPROC.2004.840301

 VandeVondele, J; Hutter, J. 
 JOURNAL OF CHEMICAL PHYSICS, 118 (10), 4365-4369 (2003). 
 An efficient orbital transformation method for electronic structure
 calculations.
 https://doi.org/10.1063/1.1543154

 Hartwigsen, C; Goedecker, S; Hutter, J. 
 PHYSICAL REVIEW B, 58 (7), 3641-3662 (1998). 
 Relativistic separable dual-space Gaussian pseudopotentials from H to Rn.
 https://doi.org/10.1103/PhysRevB.58.3641

 Lippert, G; Hutter, J; Parrinello, M. 
 MOLECULAR PHYSICS, 92 (3), 477-487 (1997). 
 A hybrid Gaussian and plane wave density functional scheme.
 https://doi.org/10.1080/002689797170220

 Goedecker, S; Teter, M; Hutter, J. 
 PHYSICAL REVIEW B, 54 (3), 1703-1710 (1996). 
 Separable dual-space Gaussian pseudopotentials.
 https://doi.org/10.1103/PhysRevB.54.1703


 -------------------------------------------------------------------------------
 -                                                                             -
 -                                T I M I N G                                  -
 -                                                                             -
 -------------------------------------------------------------------------------
 SUBROUTINE                       CALLS  ASD         SELF TIME        TOTAL TIME
                                MAXIMUM       AVERAGE  MAXIMUM  AVERAGE  MAXIMUM
 CP2K                                 1  1.0    0.010    0.011   19.996   19.996
 qs_mol_dyn_low                       1  2.0    0.003    0.004   19.915   19.925
 qs_forces                           11  3.9    0.002    0.002   19.833   19.834
 qs_energies                         11  4.9    0.001    0.001   19.293   19.296
 scf_env_do_scf                      11  5.9    0.001    0.001   11.771   11.772
 scf_env_do_scf_inner_loop          108  6.5    0.002    0.006   10.163   10.163
 velocity_verlet                     10  3.0    0.002    0.002    8.570    8.571
 dbcsr_multiply_generic            2286 12.5    0.056    0.059    5.889    6.126
 qs_scf_new_mos                     108  7.5    0.000    0.001    5.569    5.679
 qs_scf_loop_do_ot                  108  8.5    0.000    0.001    5.569    5.679
 qs_energies_init_hamiltonians       11  5.9    0.000    0.001    5.497    5.498
 ot_scf_mini                        108  9.5    0.002    0.002    5.309    5.412
 qs_env_update_s_mstruct             11  6.9    0.000    0.000    5.246    5.345
 qs_create_task_list                 11  7.9    0.000    0.000    4.593    4.696
 generate_qs_task_list               11  8.9    0.014    0.019    4.593    4.696
 distribute_tasks                    11  9.9    0.004    0.005    4.578    4.680
 create_local_tasks                  11 10.9    0.001    0.001    4.481    4.581
 mp_alltoall_l11v                    11 11.9    4.479    4.580    4.479    4.580
 multiply_cannon                   2286 13.5    0.142    0.156    3.634    4.241
 mp_waitall_1                    424732 16.0    2.315    3.724    2.315    3.724
 multiply_cannon_loop              2286 14.5    0.171    0.180    3.092    3.668
 rebuild_ks_matrix                  119  8.3    0.001    0.001    3.082    3.224
 qs_ks_build_kohn_sham_matrix       119  9.3    0.013    0.015    3.081    3.224
 ot_mini                            108 10.5    0.001    0.001    2.986    3.097
 qs_rho_update_rho                  119  7.7    0.001    0.001    3.048    3.075
 calculate_rho_elec                 119  8.7    0.006    0.007    3.047    3.075
 multiply_cannon_metrocomm3       54864 15.5    0.080    0.083    1.570    2.910
 qs_ks_update_qs_env                119  7.6    0.002    0.003    2.737    2.866
 rs_pw_transfer                     974 11.9    0.006    0.008    2.379    2.567
 qs_ot_get_derivative               108 11.5    0.001    0.001    2.182    2.284
 multiply_cannon_multrec          54864 15.5    0.704    2.237    0.708    2.242
 sum_up_and_integrate               119 10.3    0.002    0.003    2.064    2.067
 integrate_v_rspace                 119 11.3    0.002    0.003    2.061    2.065
 density_rs2pw                      119  9.7    0.003    0.004    1.900    1.989
 init_scf_run                        11  5.9    0.000    0.001    1.941    1.943
 scf_env_initial_rho_setup           11  6.9    0.000    0.000    1.941    1.943
 init_scf_loop                       11  6.9    0.000    0.001    1.597    1.598
 qs_ot_get_p                        119 10.4    0.001    0.001    1.371    1.507
 make_m2s                          4572 13.5    0.050    0.053    1.271    1.383
 mp_waitany                       12291 13.9    0.957    1.217    0.957    1.217
 prepare_preconditioner              11  7.9    0.000    0.000    1.194    1.208
 make_preconditioner                 11  8.9    0.000    0.000    1.194    1.208
 pw_transfer                       1439 11.6    0.073    0.082    1.174    1.196
 make_full_inverse_cholesky          11  9.9    0.000    0.000    1.179    1.193
 make_images                       4572 14.5    0.112    0.143    1.073    1.189
 mp_sum_l                         11138 13.3    0.734    1.166    0.734    1.166
 fft_wrap_pw1pw2                   1201 12.6    0.003    0.003    1.096    1.118
 grid_collocate_task_list           119  9.7    0.999    1.087    0.999    1.087
 potential_pw2rs                    119 12.3    0.002    0.002    1.027    1.032
 mp_alltoall_d11v                  2130 13.8    0.893    1.026    0.893    1.026
 multiply_cannon_metrocomm4       52578 15.5    0.082    0.084    0.372    0.912
 grid_integrate_task_list           119 12.3    0.849    0.898    0.849    0.898
 mp_sum_d                          4127 12.0    0.597    0.893    0.597    0.893
 dbcsr_complete_redistribute        329 12.2    0.018    0.024    0.766    0.874
 qs_ot_get_derivative_diag           49 12.0    0.001    0.001    0.772    0.824
 wfi_extrapolate                     11  7.9    0.001    0.001    0.818    0.819
 apply_preconditioner_dbcsr         119 12.6    0.000    0.000    0.674    0.799
 apply_single                       119 13.6    0.000    0.000    0.674    0.799
 ot_diis_step                       108 11.5    0.004    0.005    0.788    0.788
 copy_dbcsr_to_fm                   153 11.3    0.002    0.002    0.742    0.786
 qs_ot_get_derivative_taylor         59 13.0    0.001    0.001    0.716    0.767
 mp_irecv_dv                     112795 16.4    0.244    0.755    0.244    0.755
 rs_pw_transfer_RS2PW_140           130 11.5    0.102    0.122    0.535    0.721
 qs_ot_p2m_diag                      50 11.0    0.002    0.004    0.682    0.687
 calculate_rho_core                  11  7.9    0.010    0.011    0.652    0.678
 rs_pw_transfer_RS2PW_50            119 11.7    0.063    0.072    0.565    0.664
 fft_wrap_pw1pw2_140                487 13.2    0.014    0.016    0.620    0.649
 transfer_dbcsr_to_fm                11 10.9    0.000    0.000    0.610    0.622
 cp_dbcsr_sm_fm_multiply             37  9.5    0.000    0.001    0.616    0.618
 fft3d_pb                           487 14.2    0.065    0.071    0.575    0.601
 calculate_first_density_matrix       1  7.0    0.000    0.000    0.577    0.577
 make_images_sizes                 4572 15.5    0.003    0.003    0.490    0.567
 mp_alltoall_i44                   4572 16.5    0.488    0.565    0.488    0.565
 cp_dbcsr_syevd                      50 12.0    0.005    0.006    0.561    0.564
 cp_dbcsr_sm_fm_multiply_core        37 10.5    0.000    0.000    0.451    0.559
 mp_alltoall_z22v                  1688 16.5    0.502    0.535    0.502    0.535
 cp_fm_diag_elpa                     50 13.0    0.000    0.000    0.514    0.518
 mp_allgather_i34                  2286 14.5    0.313    0.500    0.313    0.500
 fft3d_ps                           714 15.0    0.013    0.019    0.464    0.491
 make_images_data                  4572 15.5    0.032    0.038    0.349    0.488
 cp_fm_redistribute_end              50 14.0    0.460    0.483    0.464    0.485
 multiply_cannon_metrocomm1       54864 15.5    0.029    0.031    0.103    0.463
 mp_isend_dv                     115148 16.4    0.212    0.450    0.212    0.450
 cp_fm_diag_elpa_base                50 14.0    0.018    0.436    0.018    0.447
 rs_pw_transfer_RS2PW_20            119 11.7    0.098    0.105    0.366    0.434
 hybrid_alltoall_any               4725 16.4    0.027    0.041    0.284    0.417
 -------------------------------------------------------------------------------

 The number of warnings for this run is : 2
 
 -------------------------------------------------------------------------------
  **** **** ******  **  PROGRAM ENDED AT                 2022-01-21 10:57:21.497
 ***** ** ***  *** **   PROGRAM RAN ON                                 nid003391
 **    ****   ******    PROGRAM RAN BY                                    hjudge
 ***** **    ** ** **   PROGRAM PROCESS ID                                155114
  **** **  *******  **  PROGRAM STOPPED IN /mnt/lustre/a2fs-work2/work/z19/z19/h
                                           judge/CUG/archer2/CPU/CP2K/H2O-64/3NO
                                           DES/128CPN/2THREADS
