 DBCSR| CPU Multiplication driver                                           BLAS
 DBCSR| Multrec recursion limit                                              512
 DBCSR| Multiplication stack size                                           1000
 DBCSR| Maximum elements for images                                    UNLIMITED
 DBCSR| Multiplicative factor virtual images                                   1
 DBCSR| Use multiplication densification                                       T
 DBCSR| Multiplication size stacks                                             3
 DBCSR| Use memory pool for CPU allocation                                     F
 DBCSR| Number of 3D layers                                               SINGLE
 DBCSR| Use MPI memory allocation                                              F
 DBCSR| Use RMA algorithm                                                      F
 DBCSR| Use Communication thread                                               T
 DBCSR| Communication thread load                                             75
 DBCSR| MPI: My node id                                                        0
 DBCSR| MPI: Number of nodes                                                  96
 DBCSR| OMP: Current number of threads                                         4
 DBCSR| OMP: Max number of threads                                             4
 DBCSR| Split modifier for TAS multiplication algorithm                  1.0E+00


  **** **** ******  **  PROGRAM STARTED AT               2022-01-21 10:56:29.192
 ***** ** ***  *** **   PROGRAM STARTED ON                             nid006816
 **    ****   ******    PROGRAM STARTED BY                                hjudge
 ***** **    ** ** **   PROGRAM PROCESS ID                                133938
  **** **  *******  **  PROGRAM STARTED IN /mnt/lustre/a2fs-work2/work/z19/z19/h
                                           judge/CUG/archer2/CPU/CP2K/H2O-64/3NO
                                           DES/128CPN/4THREADS

 CP2K| version string:                                          CP2K version 8.2
 CP2K| source code revision number:                                  git:310b7ab
 CP2K| cp2kflags: omp libint fftw3 libxc elpa parallel mpi3 scalapack plumed2   
 CP2K| is freely available from                            https://www.cp2k.org/
 CP2K| Program compiled at                          Thu Dec  2 10:30:45 GMT 2021
 CP2K| Program compiled on                                                  ln02
 CP2K| Program compiled for                                              ARCHER2
 CP2K| Data directory path         /work/y07/shared/apps/core/cp2k/cp2k-8.2/data
 CP2K| Input file name                                                H2O-64.inp

 GLOBAL| Force Environment number                                              1
 GLOBAL| Basis set file name                                      GTH_BASIS_SETS
 GLOBAL| Potential file name                                           POTENTIAL
 GLOBAL| MM Potential file name                                     MM_POTENTIAL
 GLOBAL| Coordinate file name                                      __STD_INPUT__
 GLOBAL| Method name                                                        CP2K
 GLOBAL| Project name                                                     H2O-64
 GLOBAL| Run type                                                             MD
 GLOBAL| FFT library                                                       FFTW3
 GLOBAL| Diagonalization library                                            ELPA
 GLOBAL| Minimum number of eigenvectors for ELPA usage                        16
 GLOBAL| Orthonormality check for eigenvectors                          DISABLED
 GLOBAL| Matrix multiplication library                                    SCALAP
 GLOBAL| All-to-all communication in single precision                          F
 GLOBAL| FFTs using library dependent lengths                                  F
 GLOBAL| Grid backend                                                       AUTO
 GLOBAL| Global print level                                                  LOW
 GLOBAL| MPI I/O enabled                                                       T
 GLOBAL| Total number of message passing processes                            96
 GLOBAL| Number of threads for this process                                    4
 GLOBAL| This output is from process                                           0
 GLOBAL| CPU model name                          AMD EPYC 7742 64-Core Processor
 GLOBAL| CPUID                                                              1002

 MEMORY| system memory details [Kb]
 MEMORY|                        rank 0           min           max       average
 MEMORY| MemTotal            263528088     263528084     263528088     263528086
 MEMORY| MemFree             249702196     249702196     250426172     250183636
 MEMORY| Buffers                 30564         30564         40624         37204
 MEMORY| Cached                1618356       1038104       1618356       1243538
 MEMORY| Slab                  1602252       1596596       1617168       1605338
 MEMORY| SReclaimable           100748        100748        109296        106029
 MEMORY| MemLikelyFree       251451864     251451864     251650248     251570408


 GENERATE|  Preliminary Number of Bonds generated:                             0
 GENERATE|  Achieved consistency in connectivity generation.

 *******************************************************************************
 *******************************************************************************
 **                                                                           **
 **     #####                         ##              ##                      **
 **    ##   ##            ##          ##              ##                      **
 **   ##     ##                       ##            ######                    **
 **   ##     ##  ##   ##  ##   #####  ##  ##   ####   ##    #####    #####    **
 **   ##     ##  ##   ##  ##  ##      ## ##   ##      ##   ##   ##  ##   ##   **
 **   ##  ## ##  ##   ##  ##  ##      ####     ###    ##   ######   ######    **
 **    ##  ###   ##   ##  ##  ##      ## ##      ##   ##   ##       ##        **
 **     #######   #####   ##   #####  ##  ##  ####    ##    #####   ##        **
 **           ##                                                    ##        **
 **                                                                           **
 **                                                ... make the atoms dance   **
 **                                                                           **
 **            Copyright (C) by CP2K developers group (2000-2021)             **
 **                      J. Chem. Phys. 152, 194103 (2020)                    **
 **                                                                           **
 *******************************************************************************


 TOTAL NUMBERS AND MAXIMUM NUMBERS

  Total number of            - Atomic kinds:                                   2
                             - Atoms:                                        192
                             - Shell sets:                                   384
                             - Shells:                                      1152
                             - Primitive Cartesian functions:               1344
                             - Cartesian basis functions:                   2688
                             - Spherical basis functions:                   2560

  Maximum angular momentum of- Orbital basis functions:                        2
                             - Local part of the GTH pseudopotential:          2
                             - Non-local part of the GTH pseudopotential:      0


 SCF PARAMETERS         Density guess:                                    ATOMIC
                        --------------------------------------------------------
                        max_scf:                                              50
                        max_scf_history:                                       0
                        max_diis:                                              4
                        --------------------------------------------------------
                        eps_scf:                                        1.00E-05
                        eps_scf_history:                                0.00E+00
                        eps_diis:                                       1.00E-01
                        eps_eigval:                                     1.00E-05
                        --------------------------------------------------------
                        level_shift [a.u.]:                                 0.00
                        --------------------------------------------------------
                        No outer SCF

 MD_PAR| Molecular dynamics protocol (MD input parameters)
 MD_PAR| Ensemble type                                                       NVE
 MD_PAR| Number of time steps                                                 10
 MD_PAR| Time step [fs]                                                 0.500000
 MD_PAR| Temperature [K]                                              300.000000
 MD_PAR| Temperature tolerance [K]                                      0.000000
 MD_PAR| Print MD information every                                    1 step(s)
 MD_PAR| File type   Print frequency [steps]                          File names
 MD_PAR| Coordinates          1                                 H2O-64-pos-1.xyz
 MD_PAR| Velocities           1                                 H2O-64-vel-1.xyz
 MD_PAR| Energies             1                                    H2O-64-1.ener
 MD_PAR| Dump                20                                 H2O-64-1.restart

 ROT| Rotational analysis information
 ROT| Principal axes and moments of inertia [a.u.]
 ROT|                           1                   2                   3
 ROT| Eigenvalues      1.74175352612E+08   1.87507692273E+08   1.99545122867E+08
 ROT|      x             -0.734964520432      0.242599134404      0.633224141748
 ROT|      y             -0.044883649946      0.914361711697     -0.402402930096
 ROT|      z             -0.676618512660     -0.324173287254     -0.661134682313
 ROT| Number of rotovibrational vectors                                        6

 DOF| Calculation of degrees of freedom
 DOF| Number of atoms                                                        192
 DOF| Number of intramolecular constraints                                     0
 DOF| Number of intermolecular constraints                                     0
 DOF| Invariants (translations + rotations)                                    3
 DOF| Degrees of freedom                                                     573

 DOF| Restraints information
 DOF| Number of intramolecular restraints                                      0
 DOF| Number of intermolecular restraints                                      0

 MD_VEL| Velocities initialization
 MD_VEL| Initial temperature [K]                                      300.000000
 MD_VEL| COM velocity            -0.0000000000    -0.0000000000    -0.0000000000

 Number of electrons:                                                        512
 Number of occupied orbitals:                                                256
 Number of molecular orbitals:                                               256

 Number of orbital functions:                                               2560
 Number of independent orbital functions:                                   2560

 Extrapolation method: initial_guess


 SCF WAVEFUNCTION OPTIMIZATION

  ----------------------------------- OT ---------------------------------------
  Minimizer      : DIIS                : direct inversion
                                         in the iterative subspace
                                         using   7 DIIS vectors
                                         safer DIIS on
  Preconditioner : FULL_KINETIC        : inversion of T + eS
  Precond_solver : DEFAULT
  stepsize       :    0.15000000                  energy_gap     :    0.20000000
  eps_taylor     :   0.10000E-15                  max_taylor     :             4
  ----------------------------------- OT ---------------------------------------

  Step     Update method      Time    Convergence         Total energy    Change
  ------------------------------------------------------------------------------
     1 OT DIIS     0.15E+00    0.2     0.01332027     -1059.3825086354 -1.06E+03
     2 OT DIIS     0.15E+00    0.1     0.00868183     -1073.0837986870 -1.37E+01
     3 OT DIIS     0.15E+00    0.1     0.00608177     -1082.3329453028 -9.25E+00
     4 OT DIIS     0.15E+00    0.1     0.00420419     -1088.9991950661 -6.67E+00
     5 OT DIIS     0.15E+00    0.1     0.00319228     -1092.5975699473 -3.60E+00
     6 OT DIIS     0.15E+00    0.1     0.00242089     -1095.2728740329 -2.68E+00
     7 OT DIIS     0.15E+00    0.1     0.00180823     -1097.1827113587 -1.91E+00
     8 OT DIIS     0.15E+00    0.1     0.00136563     -1098.4047634831 -1.22E+00
     9 OT DIIS     0.15E+00    0.1     0.00107154     -1099.0957255862 -6.91E-01
    10 OT DIIS     0.15E+00    0.1     0.00085958     -1099.5568480761 -4.61E-01
    11 OT DIIS     0.15E+00    0.1     0.00070902     -1099.8674347814 -3.11E-01
    12 OT DIIS     0.15E+00    0.1     0.00059349     -1100.0778295692 -2.10E-01
    13 OT DIIS     0.15E+00    0.1     0.00050949     -1100.2324066357 -1.55E-01
    14 OT DIIS     0.15E+00    0.1     0.00044833     -1100.3361498733 -1.04E-01
    15 OT DIIS     0.15E+00    0.1     0.00039690     -1100.4341575919 -9.80E-02
    16 OT DIIS     0.15E+00    0.1     0.00035862     -1100.5038829651 -6.97E-02
    17 OT DIIS     0.15E+00    0.1     0.00034534     -1100.5572960102 -5.34E-02
    18 OT DIIS     0.15E+00    0.1     0.00034139     -1100.5793052412 -2.20E-02
    19 OT DIIS     0.15E+00    0.1     0.00033463     -1100.5947747647 -1.55E-02
    20 OT SD       0.15E+00    0.1     0.00033658     -1100.6056259094 -1.09E-02
    21 OT DIIS     0.15E+00    0.1     0.00033500     -1100.6167318134 -1.11E-02
    22 OT DIIS     0.15E+00    0.1     0.00032752     -1100.6181770013 -1.45E-03
    23 OT DIIS     0.15E+00    0.1     0.00032184     -1100.6243784233 -6.20E-03
    24 OT DIIS     0.15E+00    0.1     0.00030944     -1100.6371107281 -1.27E-02
    25 OT SD       0.15E+00    0.1     0.00030022     -1100.6455937723 -8.48E-03
    26 OT DIIS     0.15E+00    0.1     0.00029911     -1100.6544327620 -8.84E-03
    27 OT DIIS     0.15E+00    0.1     0.00028893     -1100.6591651031 -4.73E-03
    28 OT SD       0.15E+00    0.1     0.00028473     -1100.6665449234 -7.38E-03
    29 OT SD       0.15E+00    0.1     0.00028442     -1100.6745059988 -7.96E-03
    30 OT SD       0.15E+00    0.1     0.00028480     -1100.6824615830 -7.96E-03
    31 OT SD       0.15E+00    0.1     0.00028544     -1100.6904429284 -7.98E-03
    32 OT DIIS     0.15E+00    0.1     0.00028617     -1100.6984620163 -8.02E-03
    33 OT SD       0.15E+00    0.1     0.00033211     -1100.7435544696 -4.51E-02
    34 OT SD       0.15E+00    0.1     0.00031462     -1100.7540544101 -1.05E-02
    35 OT SD       0.15E+00    0.1     0.00030588     -1100.7636302756 -9.58E-03
    36 OT SD       0.15E+00    0.1     0.00030057     -1100.7727389544 -9.11E-03
    37 OT SD       0.15E+00    0.1     0.00029679     -1100.7815597225 -8.82E-03
    38 OT SD       0.15E+00    0.1     0.00029367     -1100.7901709573 -8.61E-03
    39 OT DIIS     0.15E+00    0.1     0.00029082     -1100.7986066853 -8.44E-03
    40 OT SD       0.15E+00    0.1     0.00016833     -1100.9875339776 -1.89E-01
    41 OT DIIS     0.15E+00    0.1     0.00014750     -1100.9900984658 -2.56E-03
    42 OT DIIS     0.15E+00    0.1     0.00023356     -1100.9860321883  4.07E-03
    43 OT DIIS     0.15E+00    0.1     0.00017589     -1100.9988983826 -1.29E-02
    44 OT DIIS     0.15E+00    0.1     0.00022227     -1101.0010807322 -2.18E-03
    45 OT DIIS     0.15E+00    0.1     0.00015342     -1101.0160489382 -1.50E-02
    46 OT DIIS     0.15E+00    0.1     0.00005874     -1101.0255694169 -9.52E-03
    47 OT DIIS     0.15E+00    0.1     0.00007361     -1101.0255456257  2.38E-05
    48 OT DIIS     0.15E+00    0.1     0.00005773     -1101.0267770427 -1.23E-03
    49 OT DIIS     0.15E+00    0.1     0.00005383     -1101.0275708713 -7.94E-04
    50 OT DIIS     0.15E+00    0.1     0.00004288     -1101.0287871474 -1.22E-03

  Leaving inner SCF loop after reaching    50 steps.


  Electronic density on regular grids:       -512.0000015470       -0.0000015470
  Core density on regular grids:              512.0000000045        0.0000000045
  Total charge density on r-space grids:       -0.0000015425
  Total charge density g-space grids:          -0.0000015425

  Overlap energy of the core charge distribution:               0.00000562599749
  Self energy of the core charge distribution:              -2805.30499493854950
  Core Hamiltonian energy:                                    825.29378313624920
  Hartree energy:                                            1145.26167488921055
  Exchange-correlation energy:                               -266.27925586031188

  Total energy:                                             -1101.02878714740427

 *** WARNING in qs_scf.F:576 :: SCF run NOT converged ***


 ENERGY| Total FORCE_EVAL ( QS ) energy [a.u.]:            -1101.031005889053858

 MD_INI| MD initialization
 MD_INI| Potential energy [hartree]                          -0.110103100589E+04
 MD_INI| Kinetic energy [hartree]                             0.272187778755E+00
 MD_INI| Temperature [K]                                              300.000000
 MD_INI| Cell volume [bohr^3]                                 1.290954213209E+04
 MD_INI| Cell volume [ang^3]                                  1.912996750996E+03
 MD_INI| Cell lengths [bohr]      2.34586823E+01  2.34586823E+01  2.34586823E+01
 MD_INI| Cell lengths [ang]       1.24138000E+01  1.24138000E+01  1.24138000E+01
 MD_INI| Cell angles [deg]        9.00000000E+01  9.00000000E+01  9.00000000E+01

 Number of electrons:                                                        512
 Number of occupied orbitals:                                                256
 Number of molecular orbitals:                                               256

 Number of orbital functions:                                               2560
 Number of independent orbital functions:                                   2560

 Extrapolation method: PS Nth order
 Extrapolation order:  0


 SCF WAVEFUNCTION OPTIMIZATION

  ----------------------------------- OT ---------------------------------------
  Minimizer      : DIIS                : direct inversion
                                         in the iterative subspace
                                         using   7 DIIS vectors
                                         safer DIIS on
  Preconditioner : FULL_KINETIC        : inversion of T + eS
  Precond_solver : DEFAULT
  stepsize       :    0.15000000                  energy_gap     :    0.20000000
  eps_taylor     :   0.10000E-15                  max_taylor     :             4
  ----------------------------------- OT ---------------------------------------

  Step     Update method      Time    Convergence         Total energy    Change
  ------------------------------------------------------------------------------
     1 OT DIIS     0.15E+00    0.1     0.00024950     -1101.0278021260 -1.10E+03
     2 OT DIIS     0.15E+00    0.1     0.00016075     -1101.0327084348 -4.91E-03
     3 OT DIIS     0.15E+00    0.1     0.00009051     -1101.0362859404 -3.58E-03
     4 OT DIIS     0.15E+00    0.1     0.00006200     -1101.0377275198 -1.44E-03
     5 OT DIIS     0.15E+00    0.1     0.00003797     -1101.0386877144 -9.60E-04
     6 OT DIIS     0.15E+00    0.1     0.00002205     -1101.0391017420 -4.14E-04
     7 OT DIIS     0.15E+00    0.1     0.00001260     -1101.0392355422 -1.34E-04
     8 OT DIIS     0.15E+00    0.1     0.00000723     -1101.0392767847 -4.12E-05

  *** SCF run converged in     8 steps ***


  Electronic density on regular grids:       -512.0000014905       -0.0000014905
  Core density on regular grids:              511.9999999975       -0.0000000025
  Total charge density on r-space grids:       -0.0000014930
  Total charge density g-space grids:          -0.0000014930

  Overlap energy of the core charge distribution:               0.00000554074576
  Self energy of the core charge distribution:              -2805.30499493854950
  Core Hamiltonian energy:                                    824.99709644253778
  Hartree energy:                                            1145.47089262748523
  Exchange-correlation energy:                               -266.20227645693632

  Total energy:                                             -1101.03927678471678

 ENERGY| Total FORCE_EVAL ( QS ) energy [a.u.]:            -1101.039289567770538

 MD| ***************************************************************************
 MD| Step number                                                               1
 MD| Time [fs]                                                          0.500000
 MD| Conserved quantity [hartree]                            -0.110076554067E+04
 MD| ---------------------------------------------------------------------------
 MD|                                          Instantaneous             Averages
 MD| CPU time per MD step [s]                      7.217129             7.217129
 MD| Energy drift per atom [K]          -0.110563235405E+02   0.000000000000E+00
 MD| Potential energy [hartree]         -0.110103928957E+04  -0.110103928957E+04
 MD| Kinetic energy [hartree]            0.273748897147E+00   0.273748897147E+00
 MD| Temperature [K]                             301.720634           301.720634
 MD| ***************************************************************************

 Number of electrons:                                                        512
 Number of occupied orbitals:                                                256
 Number of molecular orbitals:                                               256

 Number of orbital functions:                                               2560
 Number of independent orbital functions:                                   2560

 Extrapolation method: PS Nth order
 Extrapolation order:  1


 SCF WAVEFUNCTION OPTIMIZATION

  ----------------------------------- OT ---------------------------------------
  Minimizer      : DIIS                : direct inversion
                                         in the iterative subspace
                                         using   7 DIIS vectors
                                         safer DIIS on
  Preconditioner : FULL_KINETIC        : inversion of T + eS
  Precond_solver : DEFAULT
  stepsize       :    0.15000000                  energy_gap     :    0.20000000
  eps_taylor     :   0.10000E-15                  max_taylor     :             4
  ----------------------------------- OT ---------------------------------------

  Step     Update method      Time    Convergence         Total energy    Change
  ------------------------------------------------------------------------------
     1 OT DIIS     0.15E+00    0.1     0.00018188     -1101.0453203603 -1.10E+03
     2 OT DIIS     0.15E+00    0.1     0.00012504     -1101.0480047349 -2.68E-03
     3 OT DIIS     0.15E+00    0.1     0.00007518     -1101.0503824747 -2.38E-03
     4 OT DIIS     0.15E+00    0.1     0.00005150     -1101.0514775398 -1.10E-03
     5 OT DIIS     0.15E+00    0.1     0.00002882     -1101.0522243275 -7.47E-04
     6 OT DIIS     0.15E+00    0.1     0.00001713     -1101.0524515200 -2.27E-04
     7 OT DIIS     0.15E+00    0.1     0.00000972     -1101.0525297399 -7.82E-05

  *** SCF run converged in     7 steps ***


  Electronic density on regular grids:       -512.0000014194       -0.0000014194
  Core density on regular grids:              511.9999999954       -0.0000000046
  Total charge density on r-space grids:       -0.0000014240
  Total charge density g-space grids:          -0.0000014240

  Overlap energy of the core charge distribution:               0.00000508717596
  Self energy of the core charge distribution:              -2805.30499493854950
  Core Hamiltonian energy:                                    823.99099462387221
  Hartree energy:                                            1146.19319039097945
  Exchange-correlation energy:                               -265.93172490335536

  Total energy:                                             -1101.05252973987740

 ENERGY| Total FORCE_EVAL ( QS ) energy [a.u.]:            -1101.052553911873247

 MD| ***************************************************************************
 MD| Step number                                                               2
 MD| Time [fs]                                                          1.000000
 MD| Conserved quantity [hartree]                            -0.110076574941E+04
 MD| ---------------------------------------------------------------------------
 MD|                                          Instantaneous             Averages
 MD| CPU time per MD step [s]                      0.740007             3.978568
 MD| Energy drift per atom [K]          -0.113996291975E+02  -0.569981459876E+01
 MD| Potential energy [hartree]         -0.110105255391E+04  -0.110104592174E+04
 MD| Kinetic energy [hartree]            0.286804501610E+00   0.280276699378E+00
 MD| Temperature [K]                             316.110264           308.915449
 MD| ***************************************************************************

 Number of electrons:                                                        512
 Number of occupied orbitals:                                                256
 Number of molecular orbitals:                                               256

 Number of orbital functions:                                               2560
 Number of independent orbital functions:                                   2560

 Extrapolation method: PS Nth order
 Extrapolation order:  2


 SCF WAVEFUNCTION OPTIMIZATION

  ----------------------------------- OT ---------------------------------------
  Minimizer      : DIIS                : direct inversion
                                         in the iterative subspace
                                         using   7 DIIS vectors
                                         safer DIIS on
  Preconditioner : FULL_KINETIC        : inversion of T + eS
  Precond_solver : DEFAULT
  stepsize       :    0.15000000                  energy_gap     :    0.20000000
  eps_taylor     :   0.10000E-15                  max_taylor     :             4
  ----------------------------------- OT ---------------------------------------

  Step     Update method      Time    Convergence         Total energy    Change
  ------------------------------------------------------------------------------
     1 OT DIIS     0.15E+00    0.1     0.00016600     -1101.0673391767 -1.10E+03
     2 OT DIIS     0.15E+00    0.1     0.00011756     -1101.0696099927 -2.27E-03
     3 OT DIIS     0.15E+00    0.1     0.00007011     -1101.0718400828 -2.23E-03
     4 OT DIIS     0.15E+00    0.1     0.00004687     -1101.0728158232 -9.76E-04
     5 OT DIIS     0.15E+00    0.1     0.00002506     -1101.0734352383 -6.19E-04
     6 OT DIIS     0.15E+00    0.1     0.00001527     -1101.0735929560 -1.58E-04
     7 OT DIIS     0.15E+00    0.1     0.00000857     -1101.0736544830 -6.15E-05

  *** SCF run converged in     7 steps ***


  Electronic density on regular grids:       -512.0000013333       -0.0000013333
  Core density on regular grids:              511.9999999979       -0.0000000021
  Total charge density on r-space grids:       -0.0000013354
  Total charge density g-space grids:          -0.0000013354

  Overlap energy of the core charge distribution:               0.00000421676033
  Self energy of the core charge distribution:              -2805.30499493854950
  Core Hamiltonian energy:                                    822.43891672553082
  Hartree energy:                                            1147.30180967799697
  Exchange-correlation energy:                               -265.50939016473012

  Total energy:                                             -1101.07365448299151

 ENERGY| Total FORCE_EVAL ( QS ) energy [a.u.]:            -1101.073673410227684

 MD| ***************************************************************************
 MD| Step number                                                               3
 MD| Time [fs]                                                          1.500000
 MD| Conserved quantity [hartree]                            -0.110076623800E+04
 MD| ---------------------------------------------------------------------------
 MD|                                          Instantaneous             Averages
 MD| CPU time per MD step [s]                      0.750917             2.902684
 MD| Energy drift per atom [K]          -0.122031982604E+02  -0.786760915263E+01
 MD| Potential energy [hartree]         -0.110107367341E+04  -0.110105517230E+04
 MD| Kinetic energy [hartree]            0.307435407036E+00   0.289329601931E+00
 MD| Temperature [K]                             338.849241           318.893379
 MD| ***************************************************************************

 Number of electrons:                                                        512
 Number of occupied orbitals:                                                256
 Number of molecular orbitals:                                               256

 Number of orbital functions:                                               2560
 Number of independent orbital functions:                                   2560

 Extrapolation method: PS Nth order
 Extrapolation order:  3


 SCF WAVEFUNCTION OPTIMIZATION

  ----------------------------------- OT ---------------------------------------
  Minimizer      : DIIS                : direct inversion
                                         in the iterative subspace
                                         using   7 DIIS vectors
                                         safer DIIS on
  Preconditioner : FULL_KINETIC        : inversion of T + eS
  Precond_solver : DEFAULT
  stepsize       :    0.15000000                  energy_gap     :    0.20000000
  eps_taylor     :   0.10000E-15                  max_taylor     :             4
  ----------------------------------- OT ---------------------------------------

  Step     Update method      Time    Convergence         Total energy    Change
  ------------------------------------------------------------------------------
     1 OT DIIS     0.15E+00    0.1     0.00016901     -1101.0882805769 -1.10E+03
     2 OT DIIS     0.15E+00    0.1     0.00012004     -1101.0906385620 -2.36E-03
     3 OT DIIS     0.15E+00    0.1     0.00006991     -1101.0929758701 -2.34E-03
     4 OT DIIS     0.15E+00    0.1     0.00004370     -1101.0939496869 -9.74E-04
     5 OT DIIS     0.15E+00    0.1     0.00002172     -1101.0944515116 -5.02E-04
     6 OT DIIS     0.15E+00    0.1     0.00001364     -1101.0945537894 -1.02E-04
     7 OT DIIS     0.15E+00    0.1     0.00000750     -1101.0946004843 -4.67E-05

  *** SCF run converged in     7 steps ***


  Electronic density on regular grids:       -512.0000012177       -0.0000012177
  Core density on regular grids:              512.0000000002        0.0000000002
  Total charge density on r-space grids:       -0.0000012176
  Total charge density g-space grids:          -0.0000012176

  Overlap energy of the core charge distribution:               0.00000308048317
  Self energy of the core charge distribution:              -2805.30499493854950
  Core Hamiltonian energy:                                    820.48664247921306
  Hartree energy:                                            1148.70443626893643
  Exchange-correlation energy:                               -264.98068737440479

  Total energy:                                             -1101.09460048432175

 ENERGY| Total FORCE_EVAL ( QS ) energy [a.u.]:            -1101.094614862852495

 MD| ***************************************************************************
 MD| Step number                                                               4
 MD| Time [fs]                                                          2.000000
 MD| Conserved quantity [hartree]                            -0.110076681835E+04
 MD| ---------------------------------------------------------------------------
 MD|                                          Instantaneous             Averages
 MD| CPU time per MD step [s]                      0.767219             2.368818
 MD| Energy drift per atom [K]          -0.131576701452E+02  -0.919012440076E+01
 MD| Potential energy [hartree]         -0.110109461486E+04  -0.110106503294E+04
 MD| Kinetic energy [hartree]            0.327796513508E+00   0.298946329825E+00
 MD| Temperature [K]                             361.290850           329.492747
 MD| ***************************************************************************

 Number of electrons:                                                        512
 Number of occupied orbitals:                                                256
 Number of molecular orbitals:                                               256

 Number of orbital functions:                                               2560
 Number of independent orbital functions:                                   2560

 Extrapolation method: PS Nth order
 Extrapolation order:  3


 SCF WAVEFUNCTION OPTIMIZATION

  ----------------------------------- OT ---------------------------------------
  Minimizer      : DIIS                : direct inversion
                                         in the iterative subspace
                                         using   7 DIIS vectors
                                         safer DIIS on
  Preconditioner : FULL_KINETIC        : inversion of T + eS
  Precond_solver : DEFAULT
  stepsize       :    0.15000000                  energy_gap     :    0.20000000
  eps_taylor     :   0.10000E-15                  max_taylor     :             4
  ----------------------------------- OT ---------------------------------------

  Step     Update method      Time    Convergence         Total energy    Change
  ------------------------------------------------------------------------------
     1 OT DIIS     0.15E+00    0.1     0.00006426     -1101.1044107587 -1.10E+03
     2 OT DIIS     0.15E+00    0.1     0.00005316     -1101.1047785953 -3.68E-04
     3 OT DIIS     0.15E+00    0.1     0.00003233     -1101.1054482933 -6.70E-04
     4 OT DIIS     0.15E+00    0.1     0.00002194     -1101.1057147469 -2.66E-04
     5 OT DIIS     0.15E+00    0.1     0.00001212     -1101.1058730821 -1.58E-04
     6 OT DIIS     0.15E+00    0.1     0.00000783     -1101.1059135917 -4.05E-05

  *** SCF run converged in     6 steps ***


  Electronic density on regular grids:       -512.0000010688       -0.0000010688
  Core density on regular grids:              511.9999999989       -0.0000000011
  Total charge density on r-space grids:       -0.0000010699
  Total charge density g-space grids:          -0.0000010699

  Overlap energy of the core charge distribution:               0.00000200945098
  Self energy of the core charge distribution:              -2805.30499493854950
  Core Hamiltonian energy:                                    818.39013702364105
  Hartree energy:                                            1150.21806280671990
  Exchange-correlation energy:                               -264.40912049295179

  Total energy:                                             -1101.10591359168961

 ENERGY| Total FORCE_EVAL ( QS ) energy [a.u.]:            -1101.105932126503603

 MD| ***************************************************************************
 MD| Step number                                                               5
 MD| Time [fs]                                                          2.500000
 MD| Conserved quantity [hartree]                            -0.110076715531E+04
 MD| ---------------------------------------------------------------------------
 MD|                                          Instantaneous             Averages
 MD| CPU time per MD step [s]                      0.670676             2.029190
 MD| Energy drift per atom [K]          -0.137118608937E+02  -0.100944716994E+02
 MD| Potential energy [hartree]         -0.110110593213E+04  -0.110107321278E+04
 MD| Kinetic energy [hartree]            0.338776813364E+00   0.306912426533E+00
 MD| Temperature [K]                             373.393120           338.272822
 MD| ***************************************************************************

 Number of electrons:                                                        512
 Number of occupied orbitals:                                                256
 Number of molecular orbitals:                                               256

 Number of orbital functions:                                               2560
 Number of independent orbital functions:                                   2560

 Extrapolation method: PS Nth order
 Extrapolation order:  3


 SCF WAVEFUNCTION OPTIMIZATION

  ----------------------------------- OT ---------------------------------------
  Minimizer      : DIIS                : direct inversion
                                         in the iterative subspace
                                         using   7 DIIS vectors
                                         safer DIIS on
  Preconditioner : FULL_KINETIC        : inversion of T + eS
  Precond_solver : DEFAULT
  stepsize       :    0.15000000                  energy_gap     :    0.20000000
  eps_taylor     :   0.10000E-15                  max_taylor     :             4
  ----------------------------------- OT ---------------------------------------

  Step     Update method      Time    Convergence         Total energy    Change
  ------------------------------------------------------------------------------
     1 OT DIIS     0.15E+00    0.1     0.00004706     -1101.1011338470 -1.10E+03
     2 OT DIIS     0.15E+00    0.1     0.00003814     -1101.1013292817 -1.95E-04
     3 OT DIIS     0.15E+00    0.1     0.00002079     -1101.1016568551 -3.28E-04
     4 OT DIIS     0.15E+00    0.1     0.00001223     -1101.1017643299 -1.07E-04
     5 OT DIIS     0.15E+00    0.1     0.00000730     -1101.1018023287 -3.80E-05

  *** SCF run converged in     5 steps ***


  Electronic density on regular grids:       -512.0000009008       -0.0000009008
  Core density on regular grids:              511.9999999941       -0.0000000059
  Total charge density on r-space grids:       -0.0000009067
  Total charge density g-space grids:          -0.0000009067

  Overlap energy of the core charge distribution:               0.00000123724772
  Self energy of the core charge distribution:              -2805.30499493854950
  Core Hamiltonian energy:                                    816.35636903933346
  Hartree energy:                                            1151.70037347691618
  Exchange-correlation energy:                               -263.85355114369378

  Total energy:                                             -1101.10180232874563

 ENERGY| Total FORCE_EVAL ( QS ) energy [a.u.]:            -1101.101815171091630

 MD| ***************************************************************************
 MD| Step number                                                               6
 MD| Time [fs]                                                          3.000000
 MD| Conserved quantity [hartree]                            -0.110076702437E+04
 MD| ---------------------------------------------------------------------------
 MD|                                          Instantaneous             Averages
 MD| CPU time per MD step [s]                      0.589079             1.789171
 MD| Energy drift per atom [K]          -0.134964995789E+02  -0.106614763459E+02
 MD| Potential energy [hartree]         -0.110110181517E+04  -0.110107797984E+04
 MD| Kinetic energy [hartree]            0.334790803780E+00   0.311558822741E+00
 MD| Temperature [K]                             368.999819           343.393988
 MD| ***************************************************************************

 Number of electrons:                                                        512
 Number of occupied orbitals:                                                256
 Number of molecular orbitals:                                               256

 Number of orbital functions:                                               2560
 Number of independent orbital functions:                                   2560

 Extrapolation method: PS Nth order
 Extrapolation order:  3


 SCF WAVEFUNCTION OPTIMIZATION

  ----------------------------------- OT ---------------------------------------
  Minimizer      : DIIS                : direct inversion
                                         in the iterative subspace
                                         using   7 DIIS vectors
                                         safer DIIS on
  Preconditioner : FULL_KINETIC        : inversion of T + eS
  Precond_solver : DEFAULT
  stepsize       :    0.15000000                  energy_gap     :    0.20000000
  eps_taylor     :   0.10000E-15                  max_taylor     :             4
  ----------------------------------- OT ---------------------------------------

  Step     Update method      Time    Convergence         Total energy    Change
  ------------------------------------------------------------------------------
     1 OT DIIS     0.15E+00    0.1     0.00004011     -1101.0829341795 -1.10E+03
     2 OT DIIS     0.15E+00    0.1     0.00003295     -1101.0830774902 -1.43E-04
     3 OT DIIS     0.15E+00    0.1     0.00001490     -1101.0833518520 -2.74E-04
     4 OT DIIS     0.15E+00    0.1     0.00000897     -1101.0834070937 -5.52E-05

  *** SCF run converged in     4 steps ***


  Electronic density on regular grids:       -512.0000007415       -0.0000007415
  Core density on regular grids:              511.9999999907       -0.0000000093
  Total charge density on r-space grids:       -0.0000007508
  Total charge density g-space grids:          -0.0000007508

  Overlap energy of the core charge distribution:               0.00000077877945
  Self energy of the core charge distribution:              -2805.30499493854950
  Core Hamiltonian energy:                                    814.58618706643756
  Hartree energy:                                            1153.00177254483242
  Exchange-correlation energy:                               -263.36637254521503

  Total energy:                                             -1101.08340709371510

 ENERGY| Total FORCE_EVAL ( QS ) energy [a.u.]:            -1101.083423173486608

 MD| ***************************************************************************
 MD| Step number                                                               7
 MD| Time [fs]                                                          3.500000
 MD| Conserved quantity [hartree]                            -0.110076647587E+04
 MD| ---------------------------------------------------------------------------
 MD|                                          Instantaneous             Averages
 MD| CPU time per MD step [s]                      0.510209             1.606462
 MD| Energy drift per atom [K]          -0.125944108476E+02  -0.109376098462E+02
 MD| Potential energy [hartree]         -0.110108342317E+04  -0.110107875746E+04
 MD| Kinetic energy [hartree]            0.316947301874E+00   0.312328605474E+00
 MD| Temperature [K]                             349.333063           344.242427
 MD| ***************************************************************************

 Number of electrons:                                                        512
 Number of occupied orbitals:                                                256
 Number of molecular orbitals:                                               256

 Number of orbital functions:                                               2560
 Number of independent orbital functions:                                   2560

 Extrapolation method: PS Nth order
 Extrapolation order:  3


 SCF WAVEFUNCTION OPTIMIZATION

  ----------------------------------- OT ---------------------------------------
  Minimizer      : DIIS                : direct inversion
                                         in the iterative subspace
                                         using   7 DIIS vectors
                                         safer DIIS on
  Preconditioner : FULL_KINETIC        : inversion of T + eS
  Precond_solver : DEFAULT
  stepsize       :    0.15000000                  energy_gap     :    0.20000000
  eps_taylor     :   0.10000E-15                  max_taylor     :             4
  ----------------------------------- OT ---------------------------------------

  Step     Update method      Time    Convergence         Total energy    Change
  ------------------------------------------------------------------------------
     1 OT DIIS     0.15E+00    0.1     0.00003934     -1101.0575992328 -1.10E+03
     2 OT DIIS     0.15E+00    0.1     0.00003220     -1101.0577371550 -1.38E-04
     3 OT DIIS     0.15E+00    0.1     0.00001302     -1101.0580145204 -2.77E-04
     4 OT DIIS     0.15E+00    0.1     0.00000937     -1101.0580508187 -3.63E-05

  *** SCF run converged in     4 steps ***


  Electronic density on regular grids:       -512.0000006088       -0.0000006088
  Core density on regular grids:              511.9999999927       -0.0000000073
  Total charge density on r-space grids:       -0.0000006162
  Total charge density g-space grids:          -0.0000006162

  Overlap energy of the core charge distribution:               0.00000054143075
  Self energy of the core charge distribution:              -2805.30499493854950
  Core Hamiltonian energy:                                    813.21035129827669
  Hartree energy:                                            1154.02258435847875
  Exchange-correlation energy:                               -262.98599207829295

  Total energy:                                             -1101.05805081865628

 ENERGY| Total FORCE_EVAL ( QS ) energy [a.u.]:            -1101.058072635294593

 MD| ***************************************************************************
 MD| Step number                                                               8
 MD| Time [fs]                                                          4.000000
 MD| Conserved quantity [hartree]                            -0.110076580471E+04
 MD| ---------------------------------------------------------------------------
 MD|                                          Instantaneous             Averages
 MD| CPU time per MD step [s]                      0.507153             1.469049
 MD| Energy drift per atom [K]          -0.114905718732E+02  -0.110067300996E+02
 MD| Potential energy [hartree]         -0.110105807264E+04  -0.110107617186E+04
 MD| Kinetic energy [hartree]            0.292267929289E+00   0.309821020951E+00
 MD| Temperature [K]                             322.131946           341.478617
 MD| ***************************************************************************

 Number of electrons:                                                        512
 Number of occupied orbitals:                                                256
 Number of molecular orbitals:                                               256

 Number of orbital functions:                                               2560
 Number of independent orbital functions:                                   2560

 Extrapolation method: PS Nth order
 Extrapolation order:  3


 SCF WAVEFUNCTION OPTIMIZATION

  ----------------------------------- OT ---------------------------------------
  Minimizer      : DIIS                : direct inversion
                                         in the iterative subspace
                                         using   7 DIIS vectors
                                         safer DIIS on
  Preconditioner : FULL_KINETIC        : inversion of T + eS
  Precond_solver : DEFAULT
  stepsize       :    0.15000000                  energy_gap     :    0.20000000
  eps_taylor     :   0.10000E-15                  max_taylor     :             4
  ----------------------------------- OT ---------------------------------------

  Step     Update method      Time    Convergence         Total energy    Change
  ------------------------------------------------------------------------------
     1 OT DIIS     0.15E+00    0.1     0.00004063     -1101.0348903338 -1.10E+03
     2 OT DIIS     0.15E+00    0.1     0.00003307     -1101.0350368210 -1.46E-04
     3 OT DIIS     0.15E+00    0.1     0.00001525     -1101.0353096156 -2.73E-04
     4 OT DIIS     0.15E+00    0.1     0.00001093     -1101.0353590077 -4.94E-05
     5 OT DIIS     0.15E+00    0.1     0.00000786     -1101.0353880637 -2.91E-05

  *** SCF run converged in     5 steps ***


  Electronic density on regular grids:       -512.0000004818       -0.0000004818
  Core density on regular grids:              511.9999999968       -0.0000000032
  Total charge density on r-space grids:       -0.0000004851
  Total charge density g-space grids:          -0.0000004851

  Overlap energy of the core charge distribution:               0.00000043858939
  Self energy of the core charge distribution:              -2805.30499493854950
  Core Hamiltonian energy:                                    812.31303150732163
  Hartree energy:                                            1154.69416732894024
  Exchange-correlation energy:                               -262.73759239996991

  Total energy:                                             -1101.03538806366805

 ENERGY| Total FORCE_EVAL ( QS ) energy [a.u.]:            -1101.035410328180660

 MD| ***************************************************************************
 MD| Step number                                                               9
 MD| Time [fs]                                                          4.500000
 MD| Conserved quantity [hartree]                            -0.110076529419E+04
 MD| ---------------------------------------------------------------------------
 MD|                                          Instantaneous             Averages
 MD| CPU time per MD step [s]                      0.580814             1.370356
 MD| Energy drift per atom [K]          -0.106509444617E+02  -0.109671983620E+02
 MD| Potential energy [hartree]         -0.110103541033E+04  -0.110107164280E+04
 MD| Kinetic energy [hartree]            0.270116139609E+00   0.305409367468E+00
 MD| Temperature [K]                             297.716680           336.616180
 MD| ***************************************************************************

 Number of electrons:                                                        512
 Number of occupied orbitals:                                                256
 Number of molecular orbitals:                                               256

 Number of orbital functions:                                               2560
 Number of independent orbital functions:                                   2560

 Extrapolation method: PS Nth order
 Extrapolation order:  3


 SCF WAVEFUNCTION OPTIMIZATION

  ----------------------------------- OT ---------------------------------------
  Minimizer      : DIIS                : direct inversion
                                         in the iterative subspace
                                         using   7 DIIS vectors
                                         safer DIIS on
  Preconditioner : FULL_KINETIC        : inversion of T + eS
  Precond_solver : DEFAULT
  stepsize       :    0.15000000                  energy_gap     :    0.20000000
  eps_taylor     :   0.10000E-15                  max_taylor     :             4
  ----------------------------------- OT ---------------------------------------

  Step     Update method      Time    Convergence         Total energy    Change
  ------------------------------------------------------------------------------
     1 OT DIIS     0.15E+00    0.1     0.00004272     -1101.0227184493 -1.10E+03
     2 OT DIIS     0.15E+00    0.1     0.00003547     -1101.0228815317 -1.63E-04
     3 OT DIIS     0.15E+00    0.1     0.00001954     -1101.0231905365 -3.09E-04
     4 OT DIIS     0.15E+00    0.1     0.00001351     -1101.0232865632 -9.60E-05
     5 OT DIIS     0.15E+00    0.1     0.00000909     -1101.0233423605 -5.58E-05

  *** SCF run converged in     5 steps ***


  Electronic density on regular grids:       -512.0000003316       -0.0000003316
  Core density on regular grids:              511.9999999981       -0.0000000019
  Total charge density on r-space grids:       -0.0000003335
  Total charge density g-space grids:          -0.0000003335

  Overlap energy of the core charge distribution:               0.00000042270338
  Self energy of the core charge distribution:              -2805.30499493854950
  Core Hamiltonian energy:                                    811.91272299884656
  Hartree energy:                                            1154.99784984051075
  Exchange-correlation energy:                               -262.62892068405012

  Total energy:                                             -1101.02334236053866

 ENERGY| Total FORCE_EVAL ( QS ) energy [a.u.]:            -1101.023374985767532

 MD| ***************************************************************************
 MD| Step number                                                              10
 MD| Time [fs]                                                          5.000000
 MD| Conserved quantity [hartree]                            -0.110076505584E+04
 MD| ---------------------------------------------------------------------------
 MD|                                          Instantaneous             Averages
 MD| CPU time per MD step [s]                      0.580785             1.291399
 MD| Energy drift per atom [K]          -0.102589390171E+02  -0.108963724275E+02
 MD| Potential energy [hartree]         -0.110102337499E+04  -0.110106681602E+04
 MD| Kinetic energy [hartree]            0.258319147696E+00   0.300700345491E+00
 MD| Temperature [K]                             284.714268           331.425989
 MD| ***************************************************************************

 -------------------------------------------------------------------------------
 -                                                                             -
 -                                DBCSR STATISTICS                             -
 -                                                                             -
 -------------------------------------------------------------------------------
 COUNTER                                    TOTAL       BLAS       SMM       ACC
 flops     9 x    32 x    32            207618048     100.0%      0.0%      0.0%
 flops    22 x    32 x    32            253755392     100.0%      0.0%      0.0%
 flops    27 x    32 x   120            789626880     100.0%      0.0%      0.0%
 flops    27 x    32 x    98            806077440     100.0%      0.0%      0.0%
 flops    49 x    32 x   120           1433026560     100.0%      0.0%      0.0%
 flops    49 x    32 x    98           1462881280     100.0%      0.0%      0.0%
 flops    54 x    32 x   120           1579253760     100.0%      0.0%      0.0%
 flops    54 x    32 x    98           1612154880     100.0%      0.0%      0.0%
 flops    27 x    32 x    32           1833172992     100.0%      0.0%      0.0%
 flops    66 x    32 x   120           1930199040     100.0%      0.0%      0.0%
 flops    67 x    32 x   120           1959444480     100.0%      0.0%      0.0%
 flops    66 x    32 x    98           1970411520     100.0%      0.0%      0.0%
 flops    67 x    32 x    98           2000266240     100.0%      0.0%      0.0%
 flops    27 x    32 x   111           2008613376     100.0%      0.0%      0.0%
 flops    76 x    32 x   120           2222653440     100.0%      0.0%      0.0%
 flops    76 x    32 x    98           2268958720     100.0%      0.0%      0.0%
 flops    93 x    32 x   120           2719825920     100.0%      0.0%      0.0%
 flops    93 x    32 x    98           2776488960     100.0%      0.0%      0.0%
 flops    98 x    32 x   120           2866053120     100.0%      0.0%      0.0%
 flops    98 x    32 x    98           2925762560     100.0%      0.0%      0.0%
 flops    49 x    32 x    32           3326869504     100.0%      0.0%      0.0%
 flops    58 x    32 x   120           3392471040     100.0%      0.0%      0.0%
 flops    58 x    32 x    98           3463147520     100.0%      0.0%      0.0%
 flops    49 x    32 x   111           3645261312     100.0%      0.0%      0.0%
 flops    54 x    32 x    32           3666345984     100.0%      0.0%      0.0%
 flops    54 x    32 x   111           4017226752     100.0%      0.0%      0.0%
 flops    66 x    32 x    32           4481089536     100.0%      0.0%      0.0%
 flops    67 x    32 x    32           4548984832     100.0%      0.0%      0.0%
 flops    66 x    32 x   111           4909943808     100.0%      0.0%      0.0%
 flops    67 x    32 x   111           4984336896     100.0%      0.0%      0.0%
 flops    76 x    32 x    32           5160042496     100.0%      0.0%      0.0%
 flops    76 x    32 x   111           5653874688     100.0%      0.0%      0.0%
 flops    93 x    32 x    32           6314262528     100.0%      0.0%      0.0%
 flops    98 x    32 x    32           6653739008     100.0%      0.0%      0.0%
 flops    93 x    32 x   111           6918557184     100.0%      0.0%      0.0%
 flops    98 x    32 x   111           7290522624     100.0%      0.0%      0.0%
 flops    58 x    32 x    32           7875854336     100.0%      0.0%      0.0%
 flops    58 x    32 x   111           8629598208     100.0%      0.0%      0.0%
 flops    71 x    32 x   120          10382131200     100.0%      0.0%      0.0%
 flops    89 x    32 x   120          10411376640     100.0%      0.0%      0.0%
 flops    71 x    32 x    98          10598425600     100.0%      0.0%      0.0%
 flops    89 x    32 x    98          10628280320     100.0%      0.0%      0.0%
 flops    80 x    32 x   120          18717081600     100.0%      0.0%      0.0%
 flops    80 x    32 x    98          19107020800     100.0%      0.0%      0.0%
 flops    71 x    32 x    32          24102830080     100.0%      0.0%      0.0%
 flops    89 x    32 x    32          24170725376     100.0%      0.0%      0.0%
 flops    71 x    32 x   111          26409546240     100.0%      0.0%      0.0%
 flops    89 x    32 x   111          26483939328     100.0%      0.0%      0.0%
 flops    32 x    32 x   120          26487029760     100.0%      0.0%      0.0%
 flops    32 x    32 x    32          26877100032     100.0%      0.0%      0.0%
 flops    32 x    32 x    98          27038842880     100.0%      0.0%      0.0%
 flops    80 x    32 x    32          43452989440     100.0%      0.0%      0.0%
 flops     9 x     9 x    32          44168260608     100.0%      0.0%      0.0%
 flops    80 x    32 x   111          47611576320     100.0%      0.0%      0.0%
 flops    22 x     9 x    32          53835724800     100.0%      0.0%      0.0%
 flops     9 x    22 x    32          53885500416     100.0%      0.0%      0.0%
 flops    22 x    22 x    32          67007283200     100.0%      0.0%      0.0%
 flops    32 x    32 x   111          67376381952     100.0%      0.0%      0.0%
 flops     9 x    32 x     9         185405884416     100.0%      0.0%      0.0%
 flops    22 x    32 x     9         227871249408     100.0%      0.0%      0.0%
 flops     9 x    32 x    22         227871249408     100.0%      0.0%      0.0%
 flops    22 x    32 x    22         279130931200     100.0%      0.0%      0.0%
 flops inhomo. stacks                244132855808     100.0%      0.0%      0.0%
 flops total                         1.933723E+12     100.0%      0.0%      0.0%
 flops max/rank                     30.195932E+09     100.0%      0.0%      0.0%
 matmuls inhomo. stacks                    490592     100.0%      0.0%      0.0%
 matmuls total                          102790456     100.0%      0.0%      0.0%
 number of processed stacks              10815176     100.0%      0.0%      0.0%
 average stack size                                     9.5       0.0       0.0
 marketing flops                     2.107592E+12
 -------------------------------------------------------------------------------
 # multiplications                           2286
 max memory usage/rank             251.240448E+06
 # max total images/rank                        3
 # max 3D layers                                1
 # MPI messages exchanged                 9436608
 MPI messages size (bytes):
  total size                       333.233586E+09
  min size                           0.000000E+00
  max size                         315.840000E+03
  average size                      35.312855E+03
 MPI breakdown and total messages size (bytes):
             size <=      128             4913240                        0
       128 < size <=     8192             1155432               9465298944
      8192 < size <=    32768             1984512              54190407680
     32768 < size <=   131072              551296              42776657920
    131072 < size <=  4194304              832128             226802306368
   4194304 < size <= 16777216                   0                        0
  16777216 < size                               0                        0
 -------------------------------------------------------------------------------

 *** WARNING in dbcsr_mm.F:294 :: Using a non-square number of MPI ranks ***
 *** might lead to poor performance. Used ranks: 96 Suggested: 100 196   ***

 -------------------------------------------------------------------------------
 -                                                                             -
 -                      DBCSR MESSAGE PASSING PERFORMANCE                      -
 -                                                                             -
 -------------------------------------------------------------------------------
 ROUTINE             CALLS      AVE VOLUME [Bytes]
 MP_Bcast               63                     12.
 MP_Allreduce        12265                     16.
 MP_Alltoall          8655                  24746.
 MP_ISend           207422                  17875.
 MP_IRecv           207748                  17452.
 -------------------------------------------------------------------------------

 -------------------------------------------------------------------------------
 -                                                                             -
 -                                GRID STATISTICS                              -
 -                                                                             -
 -------------------------------------------------------------------------------
 LP    KERNEL             BACKEND                              COUNT     PERCENT
 1     collocate ortho    REF                               15972172      21.25%
 1     integrate ortho    REF                               15311000      20.37%
 2     integrate ortho    REF                               10510320      13.98%
 2     collocate ortho    REF                                9954176      13.24%
 0     collocate ortho    REF                                8824564      11.74%
 0     integrate ortho    REF                                8009545      10.66%
 3     integrate ortho    REF                                3128060       4.16%
 3     collocate ortho    REF                                2432827       3.24%
 4     integrate ortho    REF                                 398456       0.53%
 0     collocate general  REF                                 202752       0.27%
 1     integrate general  REF                                 202752       0.27%
 4     collocate ortho    REF                                 191318       0.25%
 5     integrate ortho    REF                                  17676       0.02%
 -------------------------------------------------------------------------------

 MEMORY| Estimated peak process memory [MiB]                                 240

 -------------------------------------------------------------------------------
 -                                                                             -
 -                         MESSAGE PASSING PERFORMANCE                         -
 -                                                                             -
 -------------------------------------------------------------------------------

 ROUTINE             CALLS      AVE VOLUME [Bytes]
 MP_Group                4
 MP_Bcast             3683                  62385.
 MP_Allreduce        10180                    278.
 MP_Sync               580
 MP_Alltoall          2083                 582685.
 MP_ISendRecv        45220                   5520.
 MP_Wait             60486
 MP_comm_split          50
 MP_ISend            20771                  42672.
 MP_IRecv            20771                  42672.
 -------------------------------------------------------------------------------


 -------------------------------------------------------------------------------
 -                                                                             -
 -                           R E F E R E N C E S                               -
 -                                                                             -
 -------------------------------------------------------------------------------
 
 CP2K version 8.2, the CP2K developers group (2021).
 CP2K is freely available from https://www.cp2k.org/ .

 Kuehne,Thomas D.; Iannuzzi,Marcella; Del Ben,Mauro;
 Rybkin,Vladimir V.; Seewald,Patrick; Stein,Frederick; Laino,Teodoro;
 Khaliullin,Rustam Z.; Schuett,Ole; Schiffmann,Florian; Golze,Dorothea;
 Wilhelm,Jan; Chulkov,Sergey; Bani-Hashemian,Mohammad Hossein;
 Weber,Valery; Borstnik,Urban; Taillefumier,Mathieu;
 Jakobovits,Alice Shoshana; Lazzaro,Alfio; Pabst,Hans; Mueller,Tiziano;
 Schade,Robert; Guidon,Manuel; Andermatt,Samuel; Holmberg,Nico;
 Schenter,Gregory K.; Hehn,Anna; Bussy,Augustin; Belleflamme,Fabian;
 Tabacchi,Gloria; Gloess,Andreas; Lass,Michael; Bethune,Iain;
 Mundy,Christopher J.; Plessl,Christian; Watkins,Matt;
 VandeVondele,Joost; Krack,Matthias; Hutter,Juerg. 
 The Journal of Chemical Physics, 152 (19), (2020). 
 CP2K: An electronic structure and molecular dynamics software package -
 Quickstep: Efficient and accurate electronic structure calculations.
 https://doi.org/10.1063/5.0007045

 Schuett, Ole; Messmer, Peter; Hutter, Juerg; VandeVondele, Joost. 
 Electronic Structure Calculations on Graphics Processing Units, John
 Wiley & Sons, Ltd, 173-190 (2016). 
 GPU-Accelerated Sparse Matrix-Matrix Multiplication for
 Linear Scaling Density Functional Theory.
 https://doi.org/10.1002/9781118670712.ch8

 Borstnik, U; VandeVondele, J; Weber, V; Hutter, J. 
 PARALLEL COMPUTING, 40 (5-6), 47-58 (2014). 
 Sparse matrix multiplication: The distributed block-compressed sparse
 row library.
 https://doi.org/10.1016/j.parco.2014.03.012

 Hutter, J; Iannuzzi, M; Schiffmann, F; VandeVondele, J. 
 WIREs Comput Mol Sci., 4 (1), 15-25 (2014). 
 CP2K: atomistic simulations of condensed matter systems.
 https://doi.org/10.1002/wcms.1159

 Marek, A; Blum, V; Johanni, R; Havu, V; Lang, B; Auckenthaler, T;
 Heinecke, A; Bungartz, H; Lederer, H. 
 Journal of Physics: Condensed Matter, 26 (21), (2014). 
 The ELPA library: scalable parallel eigenvalue solutions for
 electronic structure
 theory and computational science.
 https://doi.org/10.1088/0953-8984/26/21/213201

 Krack, M. 
 THEORETICAL CHEMISTRY ACCOUNTS, 114 (1-3), 145-152 (2005). 
 Pseudopotentials for H to Kr optimized for gradient-corrected
 exchange-correlation functionals.
 https://doi.org/10.1007/s00214-005-0655-y

 VandeVondele, J; Krack, M; Mohamed, F; Parrinello, M; Chassaing, T;
 Hutter, J. COMPUTER PHYSICS COMMUNICATIONS, 167 (2), 103-128 (2005). 
 QUICKSTEP: Fast and accurate density functional calculations using a
 mixed Gaussian and plane waves approach.
 https://doi.org/10.1016/j.cpc.2004.12.014

 Frigo, M; Johnson, SG. 
 PROCEEDINGS OF THE IEEE, 93 (2), 216-231 (2005). 
 The design and implementation of FFTW3.
 https://doi.org/10.1109/JPROC.2004.840301

 VandeVondele, J; Hutter, J. 
 JOURNAL OF CHEMICAL PHYSICS, 118 (10), 4365-4369 (2003). 
 An efficient orbital transformation method for electronic structure
 calculations.
 https://doi.org/10.1063/1.1543154

 Hartwigsen, C; Goedecker, S; Hutter, J. 
 PHYSICAL REVIEW B, 58 (7), 3641-3662 (1998). 
 Relativistic separable dual-space Gaussian pseudopotentials from H to Rn.
 https://doi.org/10.1103/PhysRevB.58.3641

 Lippert, G; Hutter, J; Parrinello, M. 
 MOLECULAR PHYSICS, 92 (3), 477-487 (1997). 
 A hybrid Gaussian and plane wave density functional scheme.
 https://doi.org/10.1080/002689797170220

 Goedecker, S; Teter, M; Hutter, J. 
 PHYSICAL REVIEW B, 54 (3), 1703-1710 (1996). 
 Separable dual-space Gaussian pseudopotentials.
 https://doi.org/10.1103/PhysRevB.54.1703


 -------------------------------------------------------------------------------
 -                                                                             -
 -                                T I M I N G                                  -
 -                                                                             -
 -------------------------------------------------------------------------------
 SUBROUTINE                       CALLS  ASD         SELF TIME        TOTAL TIME
                                MAXIMUM       AVERAGE  MAXIMUM  AVERAGE  MAXIMUM
 CP2K                                 1  1.0    0.008    0.009   12.988   12.989
 qs_mol_dyn_low                       1  2.0    0.003    0.003   12.918   12.928
 qs_forces                           11  3.9    0.001    0.001   12.855   12.855
 qs_energies                         11  4.9    0.001    0.001   12.336   12.338
 scf_env_do_scf                      11  5.9    0.001    0.001   10.058   10.059
 scf_env_do_scf_inner_loop          108  6.5    0.002    0.006    9.167    9.167
 velocity_verlet                     10  3.0    0.001    0.002    6.538    6.539
 dbcsr_multiply_generic            2286 12.5    0.058    0.059    4.962    5.099
 qs_scf_new_mos                     108  7.5    0.000    0.001    4.943    5.012
 qs_scf_loop_do_ot                  108  8.5    0.001    0.001    4.943    5.012
 ot_scf_mini                        108  9.5    0.002    0.002    4.688    4.751
 multiply_cannon                   2286 13.5    0.125    0.139    3.050    3.408
 multiply_cannon_loop              2286 14.5    0.173    0.180    2.604    2.973
 rebuild_ks_matrix                  119  8.3    0.000    0.001    2.769    2.863
 qs_ks_build_kohn_sham_matrix       119  9.3    0.013    0.014    2.768    2.863
 ot_mini                            108 10.5    0.001    0.001    2.652    2.727
 qs_ks_update_qs_env                119  7.6    0.002    0.002    2.455    2.543
 mp_waitall_1                    267858 16.1    1.193    2.538    1.193    2.538
 qs_rho_update_rho                  119  7.7    0.001    0.001    2.223    2.243
 calculate_rho_elec                 119  8.7    0.010    0.015    2.222    2.242
 multiply_cannon_metrocomm3       54864 15.5    0.043    0.044    0.651    2.082
 qs_ot_get_derivative               108 11.5    0.001    0.001    1.968    2.033
 multiply_cannon_multrec          54864 15.5    1.085    1.896    1.089    1.901
 sum_up_and_integrate               119 10.3    0.005    0.007    1.840    1.844
 integrate_v_rspace                 119 11.3    0.002    0.003    1.835    1.839
 pw_transfer                       1439 11.6    0.057    0.061    1.737    1.753
 fft_wrap_pw1pw2                   1201 12.6    0.003    0.003    1.674    1.691
 fft3d_ps                          1201 14.6    0.087    0.114    1.610    1.626
 rs_pw_transfer                     974 11.9    0.006    0.007    1.482    1.586
 qs_energies_init_hamiltonians       11  5.9    0.000    0.000    1.564    1.564
 fft_wrap_pw1pw2_140                487 13.2    0.017    0.021    1.480    1.497
 qs_env_update_s_mstruct             11  6.9    0.000    0.000    1.484    1.495
 calculate_rho_core                  11  7.9    0.011    0.012    1.404    1.418
 mp_alltoall_z22v                  1201 16.6    1.361    1.376    1.361    1.376
 qs_ot_get_p                        119 10.4    0.000    0.001    1.205    1.285
 yz_to_x                            249 15.8    0.009    0.012    1.267    1.279
 make_m2s                          4572 13.5    0.048    0.050    1.144    1.209
 grid_collocate_task_list           119  9.7    1.098    1.157    1.098    1.157
 density_rs2pw                      119  9.7    0.003    0.003    0.979    1.041
 make_images                       4572 14.5    0.123    0.144    0.895    0.967
 grid_integrate_task_list           119 12.3    0.846    0.899    0.846    0.899
 init_scf_loop                       11  6.9    0.000    0.000    0.881    0.882
 potential_pw2rs                    119 12.3    0.002    0.002    0.803    0.808
 mp_sum_l                         11138 13.3    0.486    0.807    0.486    0.807
 mp_waitany                       12084 13.8    0.649    0.797    0.649    0.797
 multiply_cannon_metrocomm4       50292 15.5    0.077    0.081    0.352    0.792
 qs_ot_get_derivative_diag           49 12.0    0.001    0.001    0.711    0.745
 qs_ot_get_derivative_taylor         59 13.0    0.001    0.001    0.654    0.685
 ot_diis_step                       108 11.5    0.004    0.005    0.672    0.673
 apply_preconditioner_dbcsr         119 12.6    0.000    0.000    0.589    0.666
 apply_single                       119 13.6    0.000    0.000    0.588    0.666
 mp_irecv_dv                     114710 16.3    0.242    0.662    0.242    0.662
 init_scf_run                        11  5.9    0.000    0.000    0.635    0.635
 scf_env_initial_rho_setup           11  6.9    0.000    0.000    0.635    0.635
 qs_ot_p2m_diag                      50 11.0    0.003    0.004    0.614    0.617
 wfi_extrapolate                     11  7.9    0.001    0.001    0.549    0.549
 rs_pw_transfer_RS2PW_140           130 11.5    0.080    0.099    0.449    0.544
 prepare_preconditioner              11  7.9    0.000    0.000    0.531    0.539
 make_preconditioner                 11  8.9    0.000    0.000    0.531    0.539
 make_full_inverse_cholesky          11  9.9    0.000    0.000    0.514    0.522
 multiply_cannon_metrocomm1       54864 15.5    0.029    0.031    0.152    0.507
 cp_dbcsr_syevd                      50 12.0    0.003    0.003    0.502    0.503
 cp_fm_diag_elpa                     50 13.0    0.000    0.000    0.462    0.464
 mp_sum_d                          4127 12.0    0.303    0.452    0.303    0.452
 cp_fm_redistribute_end              50 14.0    0.398    0.435    0.401    0.436
 make_images_sizes                 4572 15.5    0.003    0.003    0.313    0.421
 mp_alltoall_i44                   4572 16.5    0.311    0.419    0.311    0.419
 cp_fm_diag_elpa_base                50 14.0    0.034    0.412    0.035    0.418
 mp_alltoall_d11v                  2130 13.8    0.329    0.372    0.329    0.372
 make_images_data                  4572 15.5    0.029    0.033    0.305    0.368
 mp_isend_dv                     114264 16.3    0.162    0.345    0.162    0.345
 qs_ks_update_qs_env_forces          11  4.9    0.000    0.000    0.336    0.344
 hybrid_alltoall_any               4725 16.4    0.026    0.043    0.251    0.326
 mp_allgather_i34                  2286 14.5    0.217    0.322    0.217    0.322
 multiply_cannon_metrocomm2       48006 15.5    0.073    0.075    0.186    0.320
 qs_ot_get_orbitals                 108 10.5    0.000    0.000    0.308    0.315
 calculate_dm_sparse                119  9.5    0.000    0.000    0.284    0.311
 rs_pw_transfer_PW2RS_140           130 13.9    0.072    0.080    0.240    0.271
 cp_fm_cholesky_invert               11 10.9    0.264    0.265    0.264    0.265
 cp_dbcsr_sm_fm_multiply             37  9.5    0.000    0.001    0.259    0.261
 -------------------------------------------------------------------------------

 The number of warnings for this run is : 2
 
 -------------------------------------------------------------------------------
  **** **** ******  **  PROGRAM ENDED AT                 2022-01-21 10:56:43.206
 ***** ** ***  *** **   PROGRAM RAN ON                                 nid006816
 **    ****   ******    PROGRAM RAN BY                                    hjudge
 ***** **    ** ** **   PROGRAM PROCESS ID                                133938
  **** **  *******  **  PROGRAM STOPPED IN /mnt/lustre/a2fs-work2/work/z19/z19/h
                                           judge/CUG/archer2/CPU/CP2K/H2O-64/3NO
                                           DES/128CPN/4THREADS
