LAMMPS (29 Sep 2021 - Update 2)
  using 8 OpenMP thread(s) per MPI task
ERROR: Cannot open file benchmark.data: No such file or directory (src/read_data.cpp:312)
Last command: read_data       benchmark.data
