LAMMPS (29 Sep 2021 - Update 2)
  using 8 OpenMP thread(s) per MPI task
Reading data file ...
  orthogonal box = (-218.01312 -224.98158 -73.417662) to (218.01312 224.98158 73.417662)
  8 by 8 by 4 MPI processor grid
  reading atoms ...
  2997924 atoms
  reading velocities ...
  2997924 velocities
  scanning bonds ...
  4 = max bonds/atom
  scanning angles ...
  6 = max angles/atom
  scanning dihedrals ...
  36 = max dihedrals/atom
  scanning impropers ...
  2 = max impropers/atom
  reading bonds ...
  2310204 bonds
  reading angles ...
  2497550 angles
  reading dihedrals ...
  2964012 dihedrals
  reading impropers ...
  28260 impropers
Finding 1-2 1-3 1-4 neighbors ...
  special bond factors lj:    0        0        0       
  special bond factors coul:  0        0        0       
     4 = max # of 1-2 neighbors
    12 = max # of 1-3 neighbors
    19 = max # of 1-4 neighbors
    21 = max # of special neighbors
  special bonds CPU = 2.649 seconds
  read_data CPU = 19.819 seconds
Finding SHAKE clusters ...
   34924 = # of size 2 clusters
  216000 = # of size 3 clusters
   35668 = # of size 4 clusters
  680410 = # of frozen angles
  find clusters CPU = 0.008 seconds
PPPM initialization ...
  using 12-bit tables for long-range coulomb (src/kspace.cpp:340)
  G vector (1/distance) = 0.20978357
  grid = 150 160 64
  stencil order = 5
  estimated absolute RMS force accuracy = 0.040128925
  estimated relative force accuracy = 0.00012084707
  using double precision FFTW3
  3d grid and FFT values/proc = 13125 6080
Neighbor list info ...
  update every 1 steps, delay 0 steps, check yes
  max neighbors/atom: 2000, page size: 100000
  master list distance cutoff = 14
  ghost atom cutoff = 14
  binsize = 7, bins = 63 65 21
  1 neighbor lists, perpetual/occasional/extra = 1 0 0
  (1) pair lj/charmm/coul/long/opt, perpetual
      attributes: half, newton on
      pair build: half/bin/newton
      stencil: half/bin/3d
      bin: standard
Setting up Verlet run ...
  Unit style    : real
  Current step  : 0
  Time step     : 2
Per MPI rank memory allocation (min/avg/max) = 109.2 | 111.6 | 115.2 Mbytes
---------------- Step        0 ----- CPU =      0.0000 (sec) ----------------
TotEng   =  -5198527.1898 KinEng   =   1900046.9846 Temp     =       299.7955 
PotEng   =  -7098574.1743 E_bond   =    106470.9532 E_angle  =    555576.1131 
E_dihed  =    249732.3951 E_impro  =      6486.5045 E_vdwl   =    322655.5854 
E_coul   =  22202828.1578 E_long   = -30542323.8834 Press    =        40.6963 
Volume   =  28808466.4245 
---------------- Step     1000 ----- CPU =    147.5066 (sec) ----------------
TotEng   =  -5198645.8371 KinEng   =   1901448.6577 Temp     =       300.0167 
PotEng   =  -7100094.4948 E_bond   =    106302.7534 E_angle  =    556345.3808 
E_dihed  =    249316.0854 E_impro  =      6513.2078 E_vdwl   =    321278.7088 
E_coul   =  22202551.2319 E_long   = -30542401.8630 Press    =        28.8266 
Volume   =  28788352.4438 
---------------- Step     2000 ----- CPU =    294.7733 (sec) ----------------
TotEng   =  -5198276.6091 KinEng   =   1903261.5179 Temp     =       300.3027 
PotEng   =  -7101538.1269 E_bond   =    106324.6353 E_angle  =    555513.1517 
E_dihed  =    249727.5968 E_impro  =      6497.7421 E_vdwl   =    321699.5119 
E_coul   =  22201044.9415 E_long   = -30542345.7063 Press    =        11.8618 
Volume   =  28780154.1299 
---------------- Step     3000 ----- CPU =    441.4304 (sec) ----------------
TotEng   =  -5203350.9301 KinEng   =   1900474.6324 Temp     =       299.8630 
PotEng   =  -7103825.5625 E_bond   =    106023.2019 E_angle  =    556401.7742 
E_dihed  =    248993.8640 E_impro  =      6438.2618 E_vdwl   =    320159.5078 
E_coul   =  22200490.8979 E_long   = -30542333.0701 Press    =        12.5087 
Volume   =  28775475.7599 
---------------- Step     4000 ----- CPU =    588.2817 (sec) ----------------
TotEng   =  -5200915.8409 KinEng   =   1900271.4809 Temp     =       299.8310 
PotEng   =  -7101187.3219 E_bond   =    105750.4684 E_angle  =    556308.1087 
E_dihed  =    249305.0411 E_impro  =      6376.9995 E_vdwl   =    322172.6706 
E_coul   =  22201220.6242 E_long   = -30542321.2344 Press    =        48.5158 
Volume   =  28793242.0226 
---------------- Step     5000 ----- CPU =    735.0978 (sec) ----------------
TotEng   =  -5197457.7585 KinEng   =   1901941.5982 Temp     =       300.0945 
PotEng   =  -7099399.3567 E_bond   =    106504.9047 E_angle  =    556850.0029 
E_dihed  =    248919.5899 E_impro  =      6350.0595 E_vdwl   =    320239.2786 
E_coul   =  22204004.8523 E_long   = -30542268.0445 Press    =        -1.0780 
Volume   =  28789275.1404 
---------------- Step     6000 ----- CPU =    883.4455 (sec) ----------------
TotEng   =  -5198770.8915 KinEng   =   1901448.6200 Temp     =       300.0167 
PotEng   =  -7100219.5115 E_bond   =    106029.9655 E_angle  =    556942.4775 
E_dihed  =    249036.1572 E_impro  =      6497.5805 E_vdwl   =    320179.1308 
E_coul   =  22203487.7739 E_long   = -30542392.5970 Press    =         6.6768 
Volume   =  28787618.4800 
---------------- Step     7000 ----- CPU =   1030.2818 (sec) ----------------
TotEng   =  -5202662.6842 KinEng   =   1900234.2588 Temp     =       299.8251 
PotEng   =  -7102896.9430 E_bond   =    106553.1080 E_angle  =    555819.3631 
E_dihed  =    249199.8488 E_impro  =      6378.9484 E_vdwl   =    322652.0417 
E_coul   =  22198861.6984 E_long   = -30542361.9515 Press    =        17.4131 
Volume   =  28793562.5980 
---------------- Step     8000 ----- CPU =   1177.1130 (sec) ----------------
TotEng   =  -5199755.5295 KinEng   =   1900415.3417 Temp     =       299.8537 
PotEng   =  -7100170.8712 E_bond   =    106836.5465 E_angle  =    556802.7078 
E_dihed  =    249448.6948 E_impro  =      6500.7053 E_vdwl   =    320063.0186 
E_coul   =  22202552.4701 E_long   = -30542375.0143 Press    =        17.9834 
Volume   =  28783364.9744 
---------------- Step     9000 ----- CPU =   1323.0283 (sec) ----------------
TotEng   =  -5203135.0810 KinEng   =   1900435.4588 Temp     =       299.8568 
PotEng   =  -7103570.5398 E_bond   =    106455.3102 E_angle  =    555521.9263 
E_dihed  =    249412.3392 E_impro  =      6431.5059 E_vdwl   =    321485.6470 
E_coul   =  22199562.0776 E_long   = -30542439.3460 Press    =        21.7070 
Volume   =  28782733.2102 
---------------- Step    10000 ----- CPU =   1468.8726 (sec) ----------------
TotEng   =  -5196394.9764 KinEng   =   1901780.5134 Temp     =       300.0691 
PotEng   =  -7098175.4898 E_bond   =    106871.7318 E_angle  =    556162.6644 
E_dihed  =    249613.6872 E_impro  =      6481.9654 E_vdwl   =    321376.0375 
E_coul   =  22203655.6756 E_long   = -30542337.2516 Press    =        19.8156 
Volume   =  28806411.6420 
Loop time of 1468.87 on 2048 procs for 10000 steps with 2997924 atoms

Performance: 1.176 ns/day, 20.401 hours/ns, 6.808 timesteps/s
168.5% CPU use with 256 MPI tasks x 8 OpenMP threads

MPI task timing breakdown:
Section |  min time  |  avg time  |  max time  |%varavg| %total
---------------------------------------------------------------
Pair    | 889.1      | 951.01     | 1052.3     | 152.8 | 64.74
Bond    | 0.025114   | 14.001     | 34.745     | 355.4 |  0.95
Kspace  | 68.968     | 189.14     | 265.28     | 437.1 | 12.88
Neigh   | 262.57     | 262.88     | 263.08     |   0.6 | 17.90
Comm    | 10.568     | 11.056     | 11.47      |   6.7 |  0.75
Output  | 4.795      | 4.7951     | 4.7956     |   0.0 |  0.33
Modify  | 31.764     | 32.457     | 32.947     |   3.3 |  2.21
Other   |            | 3.529      |            |       |  0.24

Nlocal:        11710.6 ave       12330 max       11169 min
Histogram: 10 54 49 8 4 18 41 43 22 7
Nghost:        35000.8 ave       36187 max       33995 min
Histogram: 24 36 25 25 28 19 40 33 23 3
Neighs:    7.00712e+06 ave   7.755e+06 max 6.39274e+06 min
Histogram: 9 68 39 8 7 21 40 37 16 11

Total # of neighbors = 1.7938221e+09
Ave neighs/atom = 598.35475
Ave special neighs/atom = 4.8989434
Neighbor list builds = 1373
Dangerous builds = 0
Total wall time: 0:24:49
