LAMMPS (29 Sep 2021 - Update 2)
  using 4 OpenMP thread(s) per MPI task
Reading data file ...
  orthogonal box = (-218.01312 -224.98158 -73.417662) to (218.01312 224.98158 73.417662)
  8 by 8 by 4 MPI processor grid
  reading atoms ...
  2997924 atoms
  reading velocities ...
  2997924 velocities
  scanning bonds ...
  4 = max bonds/atom
  scanning angles ...
  6 = max angles/atom
  scanning dihedrals ...
  36 = max dihedrals/atom
  scanning impropers ...
  2 = max impropers/atom
  reading bonds ...
  2310204 bonds
  reading angles ...
  2497550 angles
  reading dihedrals ...
  2964012 dihedrals
  reading impropers ...
  28260 impropers
Finding 1-2 1-3 1-4 neighbors ...
  special bond factors lj:    0        0        0       
  special bond factors coul:  0        0        0       
     4 = max # of 1-2 neighbors
    12 = max # of 1-3 neighbors
    19 = max # of 1-4 neighbors
    21 = max # of special neighbors
  special bonds CPU = 4.522 seconds
  read_data CPU = 21.632 seconds
Finding SHAKE clusters ...
   34924 = # of size 2 clusters
  216000 = # of size 3 clusters
   35668 = # of size 4 clusters
  680410 = # of frozen angles
  find clusters CPU = 0.008 seconds
PPPM initialization ...
  using 12-bit tables for long-range coulomb (src/kspace.cpp:340)
  G vector (1/distance) = 0.20978357
  grid = 150 160 64
  stencil order = 5
  estimated absolute RMS force accuracy = 0.040128925
  estimated relative force accuracy = 0.00012084707
  using double precision FFTW3
  3d grid and FFT values/proc = 13125 6080
Neighbor list info ...
  update every 1 steps, delay 0 steps, check yes
  max neighbors/atom: 2000, page size: 100000
  master list distance cutoff = 14
  ghost atom cutoff = 14
  binsize = 7, bins = 63 65 21
  1 neighbor lists, perpetual/occasional/extra = 1 0 0
  (1) pair lj/charmm/coul/long/opt, perpetual
      attributes: half, newton on
      pair build: half/bin/newton
      stencil: half/bin/3d
      bin: standard
Setting up Verlet run ...
  Unit style    : real
  Current step  : 0
  Time step     : 2
Per MPI rank memory allocation (min/avg/max) = 101.6 | 104.1 | 107.7 Mbytes
---------------- Step        0 ----- CPU =      0.0000 (sec) ----------------
TotEng   =  -5198527.1898 KinEng   =   1900046.9846 Temp     =       299.7955 
PotEng   =  -7098574.1743 E_bond   =    106470.9532 E_angle  =    555576.1131 
E_dihed  =    249732.3951 E_impro  =      6486.5045 E_vdwl   =    322655.5854 
E_coul   =  22202828.1578 E_long   = -30542323.8834 Press    =        40.6963 
Volume   =  28808466.4245 
---------------- Step     1000 ----- CPU =    147.2490 (sec) ----------------
TotEng   =  -5197639.2783 KinEng   =   1901575.4228 Temp     =       300.0367 
PotEng   =  -7099214.7011 E_bond   =    106149.6244 E_angle  =    556331.6068 
E_dihed  =    249462.0175 E_impro  =      6535.3697 E_vdwl   =    323402.7277 
E_coul   =  22201158.1715 E_long   = -30542254.2188 Press    =        57.4316 
Volume   =  28789376.2289 
---------------- Step     2000 ----- CPU =    294.6435 (sec) ----------------
TotEng   =  -5198979.3586 KinEng   =   1901486.8429 Temp     =       300.0227 
PotEng   =  -7100466.2015 E_bond   =    106280.7636 E_angle  =    555904.7829 
E_dihed  =    249671.8811 E_impro  =      6568.9354 E_vdwl   =    321242.5463 
E_coul   =  22202168.6476 E_long   = -30542303.7584 Press    =        26.4232 
Volume   =  28795680.6411 
---------------- Step     3000 ----- CPU =    442.0399 (sec) ----------------
TotEng   =  -5200914.8865 KinEng   =   1900201.8484 Temp     =       299.8200 
PotEng   =  -7101116.7349 E_bond   =    106090.3995 E_angle  =    556290.9423 
E_dihed  =    249504.2756 E_impro  =      6626.8585 E_vdwl   =    320246.7933 
E_coul   =  22202449.8041 E_long   = -30542325.8082 Press    =        32.8813 
Volume   =  28782170.1542 
---------------- Step     4000 ----- CPU =    589.4251 (sec) ----------------
TotEng   =  -5197246.3836 KinEng   =   1902236.6271 Temp     =       300.1410 
PotEng   =  -7099483.0107 E_bond   =    106513.6553 E_angle  =    557609.3071 
E_dihed  =    249577.3865 E_impro  =      6425.8378 E_vdwl   =    320799.4309 
E_coul   =  22201861.9325 E_long   = -30542270.5608 Press    =        30.4275 
Volume   =  28778977.6796 
---------------- Step     5000 ----- CPU =    736.6239 (sec) ----------------
TotEng   =  -5200363.8294 KinEng   =   1901474.6505 Temp     =       300.0208 
PotEng   =  -7101838.4799 E_bond   =    106299.8400 E_angle  =    556037.4895 
E_dihed  =    249562.6138 E_impro  =      6427.1832 E_vdwl   =    321477.2410 
E_coul   =  22200755.5419 E_long   = -30542398.3892 Press    =        25.6065 
Volume   =  28794772.6302 
---------------- Step     6000 ----- CPU =    883.7218 (sec) ----------------
TotEng   =  -5200539.3722 KinEng   =   1901966.1622 Temp     =       300.0984 
PotEng   =  -7102505.5344 E_bond   =    106173.6413 E_angle  =    556429.1440 
E_dihed  =    249594.5398 E_impro  =      6493.4212 E_vdwl   =    321637.6946 
E_coul   =  22199512.1198 E_long   = -30542346.0952 Press    =        10.7578 
Volume   =  28783753.3607 
---------------- Step     7000 ----- CPU =   1030.9978 (sec) ----------------
TotEng   =  -5200896.9564 KinEng   =   1900520.3133 Temp     =       299.8702 
PotEng   =  -7101417.2696 E_bond   =    106989.7750 E_angle  =    555820.0515 
E_dihed  =    249374.8027 E_impro  =      6504.2294 E_vdwl   =    322554.0147 
E_coul   =  22199703.3370 E_long   = -30542363.4801 Press    =        12.2050 
Volume   =  28789478.1617 
---------------- Step     8000 ----- CPU =   1178.3126 (sec) ----------------
TotEng   =  -5201090.8793 KinEng   =   1901502.6690 Temp     =       300.0252 
PotEng   =  -7102593.5483 E_bond   =    106697.9537 E_angle  =    556874.4873 
E_dihed  =    249667.9246 E_impro  =      6546.1562 E_vdwl   =    321681.9447 
E_coul   =  22198386.5760 E_long   = -30542448.5908 Press    =        -1.0795 
Volume   =  28785057.4219 
---------------- Step     9000 ----- CPU =   1325.3248 (sec) ----------------
TotEng   =  -5198867.3556 KinEng   =   1902722.7495 Temp     =       300.2177 
PotEng   =  -7101590.1051 E_bond   =    106856.1934 E_angle  =    557418.2173 
E_dihed  =    249617.4592 E_impro  =      6494.8552 E_vdwl   =    320784.7465 
E_coul   =  22199621.8556 E_long   = -30542383.4324 Press    =        41.0464 
Volume   =  28780163.2018 
---------------- Step    10000 ----- CPU =   1471.9471 (sec) ----------------
TotEng   =  -5200228.1524 KinEng   =   1901055.2402 Temp     =       299.9546 
PotEng   =  -7101283.3926 E_bond   =    106261.0679 E_angle  =    556688.5963 
E_dihed  =    249562.4977 E_impro  =      6462.7834 E_vdwl   =    322934.7567 
E_coul   =  22199219.5297 E_long   = -30542412.6243 Press    =        11.3080 
Volume   =  28787229.2756 
Loop time of 1471.95 on 1024 procs for 10000 steps with 2997924 atoms

Performance: 1.174 ns/day, 20.444 hours/ns, 6.794 timesteps/s
130.1% CPU use with 256 MPI tasks x 4 OpenMP threads

MPI task timing breakdown:
Section |  min time  |  avg time  |  max time  |%varavg| %total
---------------------------------------------------------------
Pair    | 890.83     | 950.99     | 1048       | 152.1 | 64.61
Bond    | 0.026113   | 13.977     | 36.002     | 355.4 |  0.95
Kspace  | 68.548     | 184.87     | 259        | 440.1 | 12.56
Neigh   | 262.3      | 262.62     | 262.86     |   0.7 | 17.84
Comm    | 12.947     | 14.159     | 15.268     |  17.0 |  0.96
Output  | 4.6471     | 4.6472     | 4.6476     |   0.0 |  0.32
Modify  | 36.307     | 37.505     | 38.105     |   4.9 |  2.55
Other   |            | 3.177      |            |       |  0.22

Nlocal:        11710.6 ave       12303 max       11264 min
Histogram: 37 66 18 2 5 23 41 35 20 9
Nghost:        35020.1 ave       36182 max       33885 min
Histogram: 5 32 33 32 28 24 35 41 21 5
Neighs:    7.01160e+06 ave   7.771e+06 max 6.49762e+06 min
Histogram: 48 63 11 3 15 28 36 32 11 9

Total # of neighbors = 1.7949685e+09
Ave neighs/atom = 598.73717
Ave special neighs/atom = 4.8989434
Neighbor list builds = 1369
Dangerous builds = 0
Total wall time: 0:24:54
