LAMMPS (29 Sep 2021 - Update 2)
  using 1 OpenMP thread(s) per MPI task
Reading data file ...
  orthogonal box = (-218.01312 -224.98158 -73.417662) to (218.01312 224.98158 73.417662)
  8 by 8 by 2 MPI processor grid
  reading atoms ...
  2997924 atoms
  reading velocities ...
  2997924 velocities
  scanning bonds ...
  4 = max bonds/atom
  scanning angles ...
  6 = max angles/atom
  scanning dihedrals ...
  36 = max dihedrals/atom
  scanning impropers ...
  2 = max impropers/atom
  reading bonds ...
  2310204 bonds
  reading angles ...
  2497550 angles
  reading dihedrals ...
  2964012 dihedrals
  reading impropers ...
  28260 impropers
Finding 1-2 1-3 1-4 neighbors ...
  special bond factors lj:    0        0        0       
  special bond factors coul:  0        0        0       
     4 = max # of 1-2 neighbors
    12 = max # of 1-3 neighbors
    19 = max # of 1-4 neighbors
    21 = max # of special neighbors
  special bonds CPU = 0.042 seconds
  read_data CPU = 18.633 seconds
Finding SHAKE clusters ...
   34924 = # of size 2 clusters
  216000 = # of size 3 clusters
   35668 = # of size 4 clusters
  680410 = # of frozen angles
  find clusters CPU = 0.026 seconds
PPPM initialization ...
  using 12-bit tables for long-range coulomb (src/kspace.cpp:340)
  G vector (1/distance) = 0.20978357
  grid = 150 160 64
  stencil order = 5
  estimated absolute RMS force accuracy = 0.040128925
  estimated relative force accuracy = 0.00012084707
  using double precision FFTW3
  3d grid and FFT values/proc = 23125 12160
Neighbor list info ...
  update every 1 steps, delay 0 steps, check yes
  max neighbors/atom: 2000, page size: 100000
  master list distance cutoff = 14
  ghost atom cutoff = 14
  binsize = 7, bins = 63 65 21
  1 neighbor lists, perpetual/occasional/extra = 1 0 0
  (1) pair lj/charmm/coul/long/opt, perpetual
      attributes: half, newton on
      pair build: half/bin/newton
      stencil: half/bin/3d
      bin: standard
Setting up Verlet run ...
  Unit style    : real
  Current step  : 0
  Time step     : 2
Per MPI rank memory allocation (min/avg/max) = 169.9 | 171.9 | 174.6 Mbytes
---------------- Step        0 ----- CPU =      0.0000 (sec) ----------------
TotEng   =  -5198527.1898 KinEng   =   1900046.9846 Temp     =       299.7955 
PotEng   =  -7098574.1743 E_bond   =    106470.9532 E_angle  =    555576.1131 
E_dihed  =    249732.3951 E_impro  =      6486.5045 E_vdwl   =    322655.5854 
E_coul   =  22202828.1578 E_long   = -30542323.8834 Press    =        40.6963 
Volume   =  28808466.4245 
---------------- Step     1000 ----- CPU =    341.1444 (sec) ----------------
TotEng   =  -5198186.1504 KinEng   =   1901803.4440 Temp     =       300.0727 
PotEng   =  -7099989.5944 E_bond   =    106288.4451 E_angle  =    556644.2194 
E_dihed  =    249375.0247 E_impro  =      6460.9520 E_vdwl   =    319926.0622 
E_coul   =  22203729.5010 E_long   = -30542413.7988 Press    =        36.0770 
Volume   =  28781114.9447 
---------------- Step     2000 ----- CPU =    682.3044 (sec) ----------------
TotEng   =  -5199784.7005 KinEng   =   1901283.9647 Temp     =       299.9907 
PotEng   =  -7101068.6652 E_bond   =    106217.5207 E_angle  =    557363.7563 
E_dihed  =    249751.1374 E_impro  =      6462.0740 E_vdwl   =    321623.0861 
E_coul   =  22199938.8842 E_long   = -30542425.1238 Press    =        35.4703 
Volume   =  28778202.9744 
---------------- Step     3000 ----- CPU =   1023.4251 (sec) ----------------
TotEng   =  -5200940.8927 KinEng   =   1899765.3256 Temp     =       299.7511 
PotEng   =  -7100706.2183 E_bond   =    106309.0233 E_angle  =    556607.1994 
E_dihed  =    249158.8972 E_impro  =      6446.7715 E_vdwl   =    321213.3523 
E_coul   =  22201968.5803 E_long   = -30542410.0423 Press    =        31.4343 
Volume   =  28776475.3446 
---------------- Step     4000 ----- CPU =   1364.0830 (sec) ----------------
TotEng   =  -5200993.7919 KinEng   =   1899966.0130 Temp     =       299.7828 
PotEng   =  -7100959.8049 E_bond   =    106317.3357 E_angle  =    556204.8437 
E_dihed  =    249084.1164 E_impro  =      6465.1788 E_vdwl   =    321574.4562 
E_coul   =  22201731.0800 E_long   = -30542336.8158 Press    =        45.7558 
Volume   =  28795918.1081 
---------------- Step     5000 ----- CPU =   1704.2962 (sec) ----------------
TotEng   =  -5201806.3350 KinEng   =   1900411.2114 Temp     =       299.8530 
PotEng   =  -7102217.5464 E_bond   =    106136.7410 E_angle  =    556099.5656 
E_dihed  =    249281.2226 E_impro  =      6364.9639 E_vdwl   =    322372.5017 
E_coul   =  22199923.6509 E_long   = -30542396.1921 Press    =        38.8284 
Volume   =  28786311.1118 
---------------- Step     6000 ----- CPU =   2046.3157 (sec) ----------------
TotEng   =  -5201760.0853 KinEng   =   1901978.9518 Temp     =       300.1004 
PotEng   =  -7103739.0371 E_bond   =    106098.5468 E_angle  =    556391.7655 
E_dihed  =    249314.9560 E_impro  =      6481.0496 E_vdwl   =    321629.2780 
E_coul   =  22198816.9896 E_long   = -30542471.6227 Press    =        34.9925 
Volume   =  28785254.7486 
---------------- Step     7000 ----- CPU =   2388.3118 (sec) ----------------
TotEng   =  -5199242.6044 KinEng   =   1902647.7868 Temp     =       300.2059 
PotEng   =  -7101890.3912 E_bond   =    106124.5402 E_angle  =    556401.8908 
E_dihed  =    249325.5118 E_impro  =      6584.0549 E_vdwl   =    323309.5731 
E_coul   =  22198771.8263 E_long   = -30542407.7884 Press    =        44.4971 
Volume   =  28780627.8599 
---------------- Step     8000 ----- CPU =   2728.0889 (sec) ----------------
TotEng   =  -5201452.4707 KinEng   =   1901688.6524 Temp     =       300.0546 
PotEng   =  -7103141.1231 E_bond   =    106540.8192 E_angle  =    556129.5491 
E_dihed  =    249348.4071 E_impro  =      6422.7709 E_vdwl   =    324408.4407 
E_coul   =  22196466.8225 E_long   = -30542457.9326 Press    =        32.3111 
Volume   =  28794651.0314 
---------------- Step     9000 ----- CPU =   3068.4453 (sec) ----------------
TotEng   =  -5201042.6719 KinEng   =   1901613.4286 Temp     =       300.0427 
PotEng   =  -7102656.1005 E_bond   =    106321.6952 E_angle  =    556828.5058 
E_dihed  =    249728.4562 E_impro  =      6525.2253 E_vdwl   =    321925.7852 
E_coul   =  22198436.7105 E_long   = -30542422.4788 Press    =        27.1264 
Volume   =  28786762.7758 
---------------- Step    10000 ----- CPU =   3409.0162 (sec) ----------------
TotEng   =  -5200384.4080 KinEng   =   1901185.7693 Temp     =       299.9752 
PotEng   =  -7101570.1773 E_bond   =    106105.9730 E_angle  =    556493.8448 
E_dihed  =    249242.3835 E_impro  =      6482.9904 E_vdwl   =    325107.1914 
E_coul   =  22197320.1865 E_long   = -30542322.7468 Press    =        47.8113 
Volume   =  28787546.4325 
Loop time of 3409.02 on 128 procs for 10000 steps with 2997924 atoms

Performance: 0.507 ns/day, 47.347 hours/ns, 2.933 timesteps/s
100.0% CPU use with 128 MPI tasks x 1 OpenMP threads

MPI task timing breakdown:
Section |  min time  |  avg time  |  max time  |%varavg| %total
---------------------------------------------------------------
Pair    | 2232       | 2306.5     | 2425.6     |  85.7 | 67.66
Bond    | 18.312     | 33.748     | 61.237     | 140.2 |  0.99
Kspace  | 163.33     | 307.06     | 392.47     | 271.1 |  9.01
Neigh   | 580.84     | 582.11     | 583.3      |   2.4 | 17.08
Comm    | 43.631     | 48.448     | 53.11      |  34.5 |  1.42
Output  | 5.0877     | 5.0877     | 5.0885     |   0.0 |  0.15
Modify  | 111.24     | 112.49     | 113.96     |   5.7 |  3.30
Other   |            | 13.52      |            |       |  0.40

Nlocal:        23421.3 ave       23916 max       23069 min
Histogram: 1 14 24 30 23 14 13 5 1 3
Nghost:        49934.1 ave       50790 max       49058 min
Histogram: 2 4 9 20 22 33 23 13 1 1
Neighs:    1.40222e+07 ave 1.45402e+07 max 1.36614e+07 min
Histogram: 12 12 23 20 13 20 14 7 3 4

Total # of neighbors = 1.7948442e+09
Ave neighs/atom = 598.69570
Ave special neighs/atom = 4.8989434
Neighbor list builds = 1374
Dangerous builds = 0
Total wall time: 0:57:08
