LAMMPS (29 Sep 2021 - Update 2)
  using 4 OpenMP thread(s) per MPI task
Reading data file ...
  orthogonal box = (-218.01312 -224.98158 -73.417662) to (218.01312 224.98158 73.417662)
  16 by 32 by 8 MPI processor grid
  reading atoms ...
  2997924 atoms
  reading velocities ...
  2997924 velocities
  scanning bonds ...
  4 = max bonds/atom
  scanning angles ...
  6 = max angles/atom
  scanning dihedrals ...
  36 = max dihedrals/atom
  scanning impropers ...
  2 = max impropers/atom
  reading bonds ...
  2310204 bonds
  reading angles ...
  2497550 angles
  reading dihedrals ...
  2964012 dihedrals
  reading impropers ...
  28260 impropers
Finding 1-2 1-3 1-4 neighbors ...
  special bond factors lj:    0        0        0       
  special bond factors coul:  0        0        0       
     4 = max # of 1-2 neighbors
    12 = max # of 1-3 neighbors
    19 = max # of 1-4 neighbors
    21 = max # of special neighbors
  special bonds CPU = 35.243 seconds
  read_data CPU = 52.807 seconds
Finding SHAKE clusters ...
   34924 = # of size 2 clusters
  216000 = # of size 3 clusters
   35668 = # of size 4 clusters
  680410 = # of frozen angles
  find clusters CPU = 1.855 seconds
PPPM initialization ...
  using 12-bit tables for long-range coulomb (src/kspace.cpp:340)
  G vector (1/distance) = 0.20978357
  grid = 150 160 64
  stencil order = 5
  estimated absolute RMS force accuracy = 0.040128925
  estimated relative force accuracy = 0.00012084707
  using double precision FFTW3
  3d grid and FFT values/proc = 1950 600
Neighbor list info ...
  update every 1 steps, delay 0 steps, check yes
  max neighbors/atom: 2000, page size: 100000
  master list distance cutoff = 14
  ghost atom cutoff = 14
  binsize = 7, bins = 63 65 21
  1 neighbor lists, perpetual/occasional/extra = 1 0 0
  (1) pair lj/charmm/coul/long/opt, perpetual
      attributes: half, newton on
      pair build: half/bin/newton
      stencil: half/bin/3d
      bin: standard
Setting up Verlet run ...
  Unit style    : real
  Current step  : 0
  Time step     : 2
Per MPI rank memory allocation (min/avg/max) = 27.56 | 28.12 | 28.97 Mbytes
---------------- Step        0 ----- CPU =      0.0000 (sec) ----------------
TotEng   =  -5198527.1898 KinEng   =   1900046.9846 Temp     =       299.7955 
PotEng   =  -7098574.1743 E_bond   =    106470.9532 E_angle  =    555576.1131 
E_dihed  =    249732.3951 E_impro  =      6486.5045 E_vdwl   =    322655.5854 
E_coul   =  22202828.1578 E_long   = -30542323.8834 Press    =        40.6963 
Volume   =  28808466.4245 
---------------- Step     1000 ----- CPU =     63.5453 (sec) ----------------
TotEng   =  -5198322.7157 KinEng   =   1901971.3157 Temp     =       300.0992 
PotEng   =  -7100294.0314 E_bond   =    106203.7595 E_angle  =    557017.0026 
E_dihed  =    249429.6690 E_impro  =      6515.5828 E_vdwl   =    322594.8396 
E_coul   =  22200263.6543 E_long   = -30542318.5392 Press    =        43.7139 
Volume   =  28780498.3265 
---------------- Step     2000 ----- CPU =     78.1133 (sec) ----------------
TotEng   =  -5200066.8408 KinEng   =   1902212.8479 Temp     =       300.1373 
PotEng   =  -7102279.6887 E_bond   =    106649.8757 E_angle  =    555729.8314 
E_dihed  =    249309.6741 E_impro  =      6448.0153 E_vdwl   =    320699.7642 
E_coul   =  22201317.9848 E_long   = -30542434.8342 Press    =        -2.3179 
Volume   =  28799826.0052 
---------------- Step     3000 ----- CPU =     92.5402 (sec) ----------------
TotEng   =  -5202982.2169 KinEng   =   1899891.5927 Temp     =       299.7710 
PotEng   =  -7102873.8096 E_bond   =    106325.1052 E_angle  =    556453.4760 
E_dihed  =    249048.2105 E_impro  =      6440.6110 E_vdwl   =    319736.6483 
E_coul   =  22201707.0103 E_long   = -30542584.8710 Press    =        -5.9984 
Volume   =  28797059.4582 
---------------- Step     4000 ----- CPU =    107.2326 (sec) ----------------
TotEng   =  -5200999.4998 KinEng   =   1900864.0293 Temp     =       299.9245 
PotEng   =  -7101863.5290 E_bond   =    105819.5096 E_angle  =    556803.4790 
E_dihed  =    249445.9911 E_impro  =      6524.5856 E_vdwl   =    321758.9043 
E_coul   =  22200240.5494 E_long   = -30542456.5480 Press    =        29.3755 
Volume   =  28788002.1312 
---------------- Step     5000 ----- CPU =    121.8928 (sec) ----------------
TotEng   =  -5200443.9597 KinEng   =   1902202.1375 Temp     =       300.1356 
PotEng   =  -7102646.0972 E_bond   =    106307.7015 E_angle  =    556219.0768 
E_dihed  =    249504.5124 E_impro  =      6585.9344 E_vdwl   =    324584.7322 
E_coul   =  22196455.9861 E_long   = -30542304.0406 Press    =        38.9845 
Volume   =  28773794.6633 
---------------- Step     6000 ----- CPU =    136.7487 (sec) ----------------
TotEng   =  -5203104.5533 KinEng   =   1900639.1450 Temp     =       299.8890 
PotEng   =  -7103743.6983 E_bond   =    106253.3106 E_angle  =    556219.3684 
E_dihed  =    249052.6100 E_impro  =      6402.1521 E_vdwl   =    322362.3379 
E_coul   =  22198268.1445 E_long   = -30542301.6218 Press    =        33.6046 
Volume   =  28791194.3893 
---------------- Step     7000 ----- CPU =    151.6293 (sec) ----------------
TotEng   =  -5202565.6721 KinEng   =   1899551.9272 Temp     =       299.7174 
PotEng   =  -7102117.5993 E_bond   =    106243.9293 E_angle  =    556714.4146 
E_dihed  =    249082.7804 E_impro  =      6422.1817 E_vdwl   =    319793.3774 
E_coul   =  22201989.1636 E_long   = -30542363.4463 Press    =         1.6420 
Volume   =  28785273.3450 
---------------- Step     8000 ----- CPU =    166.3610 (sec) ----------------
TotEng   =  -5196175.6082 KinEng   =   1902342.6403 Temp     =       300.1578 
PotEng   =  -7098518.2485 E_bond   =    106437.5923 E_angle  =    556630.3730 
E_dihed  =    249332.8823 E_impro  =      6442.3234 E_vdwl   =    324085.5989 
E_coul   =  22200948.4225 E_long   = -30542395.4407 Press    =        57.0072 
Volume   =  28792866.5381 
---------------- Step     9000 ----- CPU =    181.3019 (sec) ----------------
TotEng   =  -5201693.1889 KinEng   =   1899694.8329 Temp     =       299.7400 
PotEng   =  -7101388.0218 E_bond   =    106238.4983 E_angle  =    557138.6433 
E_dihed  =    248734.9242 E_impro  =      6503.9336 E_vdwl   =    321263.2191 
E_coul   =  22201108.0866 E_long   = -30542375.3268 Press    =        27.6052 
Volume   =  28786643.6094 
---------------- Step    10000 ----- CPU =    196.2050 (sec) ----------------
TotEng   =  -5202272.9907 KinEng   =   1899370.6863 Temp     =       299.6888 
PotEng   =  -7101643.6770 E_bond   =    106767.2108 E_angle  =    556211.1262 
E_dihed  =    248713.2478 E_impro  =      6312.6535 E_vdwl   =    322632.4150 
E_coul   =  22200222.6350 E_long   = -30542502.9652 Press    =        64.2591 
Volume   =  28779916.6519 
Loop time of 196.206 on 16384 procs for 10000 steps with 2997924 atoms

Performance: 8.807 ns/day, 2.725 hours/ns, 50.967 timesteps/s
255.2% CPU use with 4096 MPI tasks x 4 OpenMP threads

MPI task timing breakdown:
Section |  min time  |  avg time  |  max time  |%varavg| %total
---------------------------------------------------------------
Pair    | 52.612     | 60.66      | 76.301     |  48.6 | 30.92
Bond    | 0.0031515  | 0.86223    | 3.2138     | 116.9 |  0.44
Kspace  | 31.172     | 49.166     | 57.133     |  66.1 | 25.06
Neigh   | 19.114     | 19.2       | 19.278     |   0.7 |  9.79
Comm    | 3.7766     | 4.099      | 4.7374     |   7.0 |  2.09
Output  | 54.324     | 54.324     | 54.325     |   0.0 | 27.69
Modify  | 5.5805     | 6.1402     | 6.7952     |   8.7 |  3.13
Other   |            | 1.754      |            |       |  0.89

Nlocal:        731.915 ave         851 max         660 min
Histogram: 26 313 1105 1027 729 605 235 47 8 1
Nghost:        10484.6 ave       11141 max        9985 min
Histogram: 41 662 807 425 515 564 536 395 139 12
Neighs:        438325.0 ave      571161 max      365938 min
Histogram: 80 631 789 1076 895 446 106 48 22 3

Total # of neighbors = 1.7953807e+09
Ave neighs/atom = 598.87465
Ave special neighs/atom = 4.8989434
Neighbor list builds = 1369
Dangerous builds = 0
Total wall time: 0:04:16
