LAMMPS (29 Sep 2021 - Update 2)
  using 4 OpenMP thread(s) per MPI task
Reading data file ...
  orthogonal box = (-218.01312 -224.98158 -73.417662) to (218.01312 224.98158 73.417662)
  8 by 8 by 2 MPI processor grid
  reading atoms ...
  2997924 atoms
  reading velocities ...
  2997924 velocities
  scanning bonds ...
  4 = max bonds/atom
  scanning angles ...
  6 = max angles/atom
  scanning dihedrals ...
  36 = max dihedrals/atom
  scanning impropers ...
  2 = max impropers/atom
  reading bonds ...
  2310204 bonds
  reading angles ...
  2497550 angles
  reading dihedrals ...
  2964012 dihedrals
  reading impropers ...
  28260 impropers
Finding 1-2 1-3 1-4 neighbors ...
  special bond factors lj:    0        0        0       
  special bond factors coul:  0        0        0       
     4 = max # of 1-2 neighbors
    12 = max # of 1-3 neighbors
    19 = max # of 1-4 neighbors
    21 = max # of special neighbors
  special bonds CPU = 1.965 seconds
  read_data CPU = 19.348 seconds
Finding SHAKE clusters ...
   34924 = # of size 2 clusters
  216000 = # of size 3 clusters
   35668 = # of size 4 clusters
  680410 = # of frozen angles
  find clusters CPU = 0.013 seconds
PPPM initialization ...
  using 12-bit tables for long-range coulomb (src/kspace.cpp:340)
  G vector (1/distance) = 0.20978357
  grid = 150 160 64
  stencil order = 5
  estimated absolute RMS force accuracy = 0.040128925
  estimated relative force accuracy = 0.00012084707
  using double precision FFTW3
  3d grid and FFT values/proc = 23125 12160
Neighbor list info ...
  update every 1 steps, delay 0 steps, check yes
  max neighbors/atom: 2000, page size: 100000
  master list distance cutoff = 14
  ghost atom cutoff = 14
  binsize = 7, bins = 63 65 21
  1 neighbor lists, perpetual/occasional/extra = 1 0 0
  (1) pair lj/charmm/coul/long/opt, perpetual
      attributes: half, newton on
      pair build: half/bin/newton
      stencil: half/bin/3d
      bin: standard
Setting up Verlet run ...
  Unit style    : real
  Current step  : 0
  Time step     : 2
Per MPI rank memory allocation (min/avg/max) = 178.5 | 180.6 | 183.3 Mbytes
---------------- Step        0 ----- CPU =      0.0000 (sec) ----------------
TotEng   =  -5198527.1898 KinEng   =   1900046.9846 Temp     =       299.7955 
PotEng   =  -7098574.1743 E_bond   =    106470.9532 E_angle  =    555576.1131 
E_dihed  =    249732.3951 E_impro  =      6486.5045 E_vdwl   =    322655.5854 
E_coul   =  22202828.1578 E_long   = -30542323.8834 Press    =        40.6963 
Volume   =  28808466.4245 
---------------- Step     1000 ----- CPU =    275.1274 (sec) ----------------
TotEng   =  -5199569.8967 KinEng   =   1900598.3077 Temp     =       299.8825 
PotEng   =  -7100168.2045 E_bond   =    105862.9209 E_angle  =    556566.0912 
E_dihed  =    249561.7758 E_impro  =      6484.0224 E_vdwl   =    320323.8250 
E_coul   =  22203372.5828 E_long   = -30542339.4224 Press    =        12.2504 
Volume   =  28786272.7287 
---------------- Step     2000 ----- CPU =    547.4092 (sec) ----------------
TotEng   =  -5203266.3197 KinEng   =   1899584.9185 Temp     =       299.7226 
PotEng   =  -7102851.2382 E_bond   =    105903.1552 E_angle  =    555921.8379 
E_dihed  =    249586.0649 E_impro  =      6366.0356 E_vdwl   =    321145.9699 
E_coul   =  22200617.9867 E_long   = -30542392.2885 Press    =        18.2157 
Volume   =  28780270.0881 
---------------- Step     3000 ----- CPU =    819.8681 (sec) ----------------
TotEng   =  -5202908.4811 KinEng   =   1899414.1515 Temp     =       299.6957 
PotEng   =  -7102322.6326 E_bond   =    106529.8529 E_angle  =    556138.1650 
E_dihed  =    249243.0324 E_impro  =      6507.8875 E_vdwl   =    322449.2382 
E_coul   =  22199178.8680 E_long   = -30542369.6767 Press    =        18.5426 
Volume   =  28785178.0429 
---------------- Step     4000 ----- CPU =   1092.1346 (sec) ----------------
TotEng   =  -5199282.6208 KinEng   =   1902441.7898 Temp     =       300.1734 
PotEng   =  -7101724.4106 E_bond   =    106663.1469 E_angle  =    556092.0406 
E_dihed  =    249443.3773 E_impro  =      6525.8698 E_vdwl   =    322305.5783 
E_coul   =  22199583.5979 E_long   = -30542338.0213 Press    =        45.3510 
Volume   =  28783956.0387 
---------------- Step     5000 ----- CPU =   1363.9623 (sec) ----------------
TotEng   =  -5199044.4702 KinEng   =   1901458.0295 Temp     =       300.0182 
PotEng   =  -7100502.4997 E_bond   =    106697.4143 E_angle  =    555608.7108 
E_dihed  =    249234.0948 E_impro  =      6484.8054 E_vdwl   =    320963.2890 
E_coul   =  22202774.7469 E_long   = -30542265.5608 Press    =        -2.0741 
Volume   =  28786355.2272 
---------------- Step     6000 ----- CPU =   1637.2041 (sec) ----------------
TotEng   =  -5198297.3485 KinEng   =   1902165.2409 Temp     =       300.1298 
PotEng   =  -7100462.5893 E_bond   =    106181.0730 E_angle  =    556489.4884 
E_dihed  =    249365.8793 E_impro  =      6460.2186 E_vdwl   =    320569.7686 
E_coul   =  22202731.1244 E_long   = -30542260.1416 Press    =        13.6686 
Volume   =  28796217.0235 
---------------- Step     7000 ----- CPU =   1911.0028 (sec) ----------------
TotEng   =  -5201620.5424 KinEng   =   1900539.3586 Temp     =       299.8732 
PotEng   =  -7102159.9010 E_bond   =    106089.3491 E_angle  =    556743.9825 
E_dihed  =    249813.5465 E_impro  =      6450.9175 E_vdwl   =    319884.2830 
E_coul   =  22201182.7326 E_long   = -30542324.7122 Press    =        37.8001 
Volume   =  28787292.1452 
---------------- Step     8000 ----- CPU =   2184.4292 (sec) ----------------
TotEng   =  -5203356.0856 KinEng   =   1900936.3369 Temp     =       299.9359 
PotEng   =  -7104292.4225 E_bond   =    106152.0452 E_angle  =    555881.6395 
E_dihed  =    249106.3388 E_impro  =      6453.3335 E_vdwl   =    324110.0609 
E_coul   =  22196387.8026 E_long   = -30542383.6429 Press    =        32.2148 
Volume   =  28781276.4009 
---------------- Step     9000 ----- CPU =   2457.4089 (sec) ----------------
TotEng   =  -5198570.7593 KinEng   =   1901921.6663 Temp     =       300.0913 
PotEng   =  -7100492.4256 E_bond   =    106270.4702 E_angle  =    556741.4293 
E_dihed  =    249399.0384 E_impro  =      6431.6053 E_vdwl   =    321413.9567 
E_coul   =  22201649.2331 E_long   = -30542398.1586 Press    =        33.5612 
Volume   =  28787913.3829 
---------------- Step    10000 ----- CPU =   2729.8849 (sec) ----------------
TotEng   =  -5201837.7412 KinEng   =   1901898.1328 Temp     =       300.0876 
PotEng   =  -7103735.8740 E_bond   =    106317.2181 E_angle  =    555762.0687 
E_dihed  =    250030.9060 E_impro  =      6437.6208 E_vdwl   =    323747.0909 
E_coul   =  22196323.5347 E_long   = -30542354.3132 Press    =        65.5619 
Volume   =  28776207.3549 
Loop time of 2729.89 on 512 procs for 10000 steps with 2997924 atoms

Performance: 0.633 ns/day, 37.915 hours/ns, 3.663 timesteps/s
117.4% CPU use with 128 MPI tasks x 4 OpenMP threads

MPI task timing breakdown:
Section |  min time  |  avg time  |  max time  |%varavg| %total
---------------------------------------------------------------
Pair    | 1841.2     | 1892.1     | 1976.7     |  64.3 | 69.31
Bond    | 14.961     | 27.819     | 53.13      | 131.7 |  1.02
Kspace  | 119.26     | 229.45     | 285.59     | 222.2 |  8.41
Neigh   | 485.75     | 486.22     | 486.72     |   1.1 | 17.81
Comm    | 21.177     | 22.652     | 23.809     |  15.6 |  0.83
Output  | 4.564      | 4.564      | 4.5645     |   0.0 |  0.17
Modify  | 60.981     | 62.26      | 63.448     |   5.1 |  2.28
Other   |            | 4.779      |            |       |  0.18

Nlocal:        23421.3 ave       24067 max       23078 min
Histogram: 6 22 29 26 23 14 1 4 2 1
Nghost:        49945.2 ave       50474 max       49180 min
Histogram: 3 3 12 12 10 22 21 16 19 10
Neighs:    1.40281e+07 ave 1.47004e+07 max 1.36015e+07 min
Histogram: 4 21 23 19 22 24 7 3 4 1

Total # of neighbors = 1.7956016e+09
Ave neighs/atom = 598.94834
Ave special neighs/atom = 4.8989434
Neighbor list builds = 1369
Dangerous builds = 0
Total wall time: 0:45:50
