LAMMPS (29 Sep 2021 - Update 2)
  using 2 OpenMP thread(s) per MPI task
Reading data file ...
  orthogonal box = (-218.01312 -224.98158 -73.417662) to (218.01312 224.98158 73.417662)
  16 by 16 by 4 MPI processor grid
  reading atoms ...
  2997924 atoms
  reading velocities ...
  2997924 velocities
  scanning bonds ...
  4 = max bonds/atom
  scanning angles ...
  6 = max angles/atom
  scanning dihedrals ...
  36 = max dihedrals/atom
  scanning impropers ...
  2 = max impropers/atom
  reading bonds ...
  2310204 bonds
  reading angles ...
  2497550 angles
  reading dihedrals ...
  2964012 dihedrals
  reading impropers ...
  28260 impropers
Finding 1-2 1-3 1-4 neighbors ...
  special bond factors lj:    0        0        0       
  special bond factors coul:  0        0        0       
     4 = max # of 1-2 neighbors
    12 = max # of 1-3 neighbors
    19 = max # of 1-4 neighbors
    21 = max # of special neighbors
  special bonds CPU = 39.727 seconds
  read_data CPU = 56.834 seconds
Finding SHAKE clusters ...
   34924 = # of size 2 clusters
  216000 = # of size 3 clusters
   35668 = # of size 4 clusters
  680410 = # of frozen angles
  find clusters CPU = 0.311 seconds
PPPM initialization ...
  using 12-bit tables for long-range coulomb (src/kspace.cpp:340)
  G vector (1/distance) = 0.20978357
  grid = 150 160 64
  stencil order = 5
  estimated absolute RMS force accuracy = 0.040128925
  estimated relative force accuracy = 0.00012084707
  using double precision FFTW3
  3d grid and FFT values/proc = 4725 1800
Neighbor list info ...
  update every 1 steps, delay 0 steps, check yes
  max neighbors/atom: 2000, page size: 100000
  master list distance cutoff = 14
  ghost atom cutoff = 14
  binsize = 7, bins = 63 65 21
  1 neighbor lists, perpetual/occasional/extra = 1 0 0
  (1) pair lj/charmm/coul/long/opt, perpetual
      attributes: half, newton on
      pair build: half/bin/newton
      stencil: half/bin/3d
      bin: standard
Setting up Verlet run ...
  Unit style    : real
  Current step  : 0
  Time step     : 2
Per MPI rank memory allocation (min/avg/max) = 53.37 | 54.16 | 55.50 Mbytes
---------------- Step        0 ----- CPU =      0.0000 (sec) ----------------
TotEng   =  -5198527.1898 KinEng   =   1900046.9846 Temp     =       299.7955 
PotEng   =  -7098574.1743 E_bond   =    106470.9532 E_angle  =    555576.1131 
E_dihed  =    249732.3951 E_impro  =      6486.5045 E_vdwl   =    322655.5854 
E_coul   =  22202828.1578 E_long   = -30542323.8834 Press    =        40.6963 
Volume   =  28808466.4245 
---------------- Step     1000 ----- CPU =     41.2089 (sec) ----------------
TotEng   =  -5198795.0289 KinEng   =   1902199.0860 Temp     =       300.1351 
PotEng   =  -7100994.1149 E_bond   =    106102.9635 E_angle  =    556579.2505 
E_dihed  =    249695.5591 E_impro  =      6469.7482 E_vdwl   =    322294.5101 
E_coul   =  22200259.6200 E_long   = -30542395.7665 Press    =        33.0461 
Volume   =  28789837.7926 
---------------- Step     2000 ----- CPU =     82.4937 (sec) ----------------
TotEng   =  -5199801.8504 KinEng   =   1901524.3227 Temp     =       300.0286 
PotEng   =  -7101326.1731 E_bond   =    106459.4282 E_angle  =    555312.8743 
E_dihed  =    249371.6528 E_impro  =      6365.6531 E_vdwl   =    321091.2879 
E_coul   =  22202526.7276 E_long   = -30542453.7970 Press    =        11.5549 
Volume   =  28787755.1189 
---------------- Step     3000 ----- CPU =    123.6613 (sec) ----------------
TotEng   =  -5201261.2177 KinEng   =   1900184.9317 Temp     =       299.8173 
PotEng   =  -7101446.1493 E_bond   =    106051.1758 E_angle  =    555484.9409 
E_dihed  =    249399.6770 E_impro  =      6480.1923 E_vdwl   =    322253.9578 
E_coul   =  22201328.2556 E_long   = -30542444.3488 Press    =        40.6956 
Volume   =  28787072.2115 
---------------- Step     4000 ----- CPU =    164.7540 (sec) ----------------
TotEng   =  -5199440.2823 KinEng   =   1902389.6438 Temp     =       300.1652 
PotEng   =  -7101829.9261 E_bond   =    106027.4681 E_angle  =    556697.1191 
E_dihed  =    249441.6111 E_impro  =      6506.9097 E_vdwl   =    322276.2983 
E_coul   =  22199600.5905 E_long   = -30542379.9229 Press    =        51.0293 
Volume   =  28789060.4712 
---------------- Step     5000 ----- CPU =    205.6012 (sec) ----------------
TotEng   =  -5201967.5822 KinEng   =   1901480.2104 Temp     =       300.0217 
PotEng   =  -7103447.7927 E_bond   =    106008.3315 E_angle  =    556256.0174 
E_dihed  =    249373.9114 E_impro  =      6499.9574 E_vdwl   =    320539.3066 
E_coul   =  22200101.0683 E_long   = -30542226.3853 Press    =        40.6386 
Volume   =  28777381.3347 
---------------- Step     6000 ----- CPU =    246.4855 (sec) ----------------
TotEng   =  -5201275.3392 KinEng   =   1900932.6277 Temp     =       299.9353 
PotEng   =  -7102207.9668 E_bond   =    106095.1839 E_angle  =    555943.7912 
E_dihed  =    249716.3425 E_impro  =      6429.3478 E_vdwl   =    319695.7424 
E_coul   =  22202345.8781 E_long   = -30542434.2528 Press    =        30.8889 
Volume   =  28776082.8439 
---------------- Step     7000 ----- CPU =    287.3267 (sec) ----------------
TotEng   =  -5203007.9755 KinEng   =   1900610.0334 Temp     =       299.8844 
PotEng   =  -7103618.0088 E_bond   =    105773.8376 E_angle  =    555839.3846 
E_dihed  =    249530.3168 E_impro  =      6408.4010 E_vdwl   =    320427.5458 
E_coul   =  22200630.2272 E_long   = -30542227.7218 Press    =        24.3183 
Volume   =  28784429.2022 
---------------- Step     8000 ----- CPU =    328.1929 (sec) ----------------
TotEng   =  -5202395.3211 KinEng   =   1899708.0230 Temp     =       299.7421 
PotEng   =  -7102103.3442 E_bond   =    106245.5426 E_angle  =    556353.0154 
E_dihed  =    249263.0905 E_impro  =      6436.2403 E_vdwl   =    319831.4646 
E_coul   =  22202089.9867 E_long   = -30542322.6842 Press    =        12.7081 
Volume   =  28787589.8605 
---------------- Step     9000 ----- CPU =    369.1199 (sec) ----------------
TotEng   =  -5201782.5048 KinEng   =   1899875.1693 Temp     =       299.7684 
PotEng   =  -7101657.6741 E_bond   =    106116.4378 E_angle  =    556567.1997 
E_dihed  =    249361.1622 E_impro  =      6514.0096 E_vdwl   =    319593.9735 
E_coul   =  22202530.4143 E_long   = -30542340.8711 Press    =        17.9715 
Volume   =  28769549.2397 
---------------- Step    10000 ----- CPU =    410.0385 (sec) ----------------
TotEng   =  -5200281.1737 KinEng   =   1902251.8714 Temp     =       300.1434 
PotEng   =  -7102533.0450 E_bond   =    106369.5631 E_angle  =    555690.5932 
E_dihed  =    249190.3853 E_impro  =      6417.6905 E_vdwl   =    321706.8619 
E_coul   =  22200376.3486 E_long   = -30542284.4876 Press    =        26.6137 
Volume   =  28779074.1082 
Loop time of 410.039 on 2048 procs for 10000 steps with 2997924 atoms

Performance: 4.214 ns/day, 5.695 hours/ns, 24.388 timesteps/s
125.4% CPU use with 1024 MPI tasks x 2 OpenMP threads

MPI task timing breakdown:
Section |  min time  |  avg time  |  max time  |%varavg| %total
---------------------------------------------------------------
Pair    | 225.61     | 242.77     | 274.99     |  77.6 | 59.21
Bond    | 0.019751   | 3.5626     | 9.7856     | 180.4 |  0.87
Kspace  | 27.642     | 64.774     | 85.49      | 191.1 | 15.80
Neigh   | 66.99      | 67.211     | 67.402     |   1.2 | 16.39
Comm    | 9.1418     | 9.7268     | 10.609     |  10.9 |  2.37
Output  | 5.0968     | 5.0969     | 5.0973     |   0.0 |  1.24
Modify  | 13.995     | 14.666     | 15.363     |   9.3 |  3.58
Other   |            | 2.237      |            |       |  0.55

Nlocal:        2927.66 ave        3135 max        2756 min
Histogram: 7 122 243 114 65 149 165 109 40 10
Nghost:        17926.2 ave       18699 max       17255 min
Histogram: 14 122 182 119 107 126 173 130 46 5
Neighs:    1.75336e+06 ave 2.00253e+06 max 1.56465e+06 min
Histogram: 9 169 257 60 85 143 171 81 40 9

Total # of neighbors = 1.7954447e+09
Ave neighs/atom = 598.89599
Ave special neighs/atom = 4.8989434
Neighbor list builds = 1367
Dangerous builds = 0
Total wall time: 0:07:47
