LAMMPS (29 Sep 2021 - Update 2)
  using 1 OpenMP thread(s) per MPI task
Reading data file ...
  orthogonal box = (-218.01312 -224.98158 -73.417662) to (218.01312 224.98158 73.417662)
  16 by 32 by 8 MPI processor grid
  reading atoms ...
  2997924 atoms
  reading velocities ...
  2997924 velocities
  scanning bonds ...
  4 = max bonds/atom
  scanning angles ...
  6 = max angles/atom
  scanning dihedrals ...
  36 = max dihedrals/atom
  scanning impropers ...
  2 = max impropers/atom
  reading bonds ...
  2310204 bonds
  reading angles ...
  2497550 angles
  reading dihedrals ...
  2964012 dihedrals
  reading impropers ...
  28260 impropers
Finding 1-2 1-3 1-4 neighbors ...
  special bond factors lj:    0        0        0       
  special bond factors coul:  0        0        0       
     4 = max # of 1-2 neighbors
    12 = max # of 1-3 neighbors
    19 = max # of 1-4 neighbors
    21 = max # of special neighbors
  special bonds CPU = 120.147 seconds
  read_data CPU = 138.644 seconds
Finding SHAKE clusters ...
   34924 = # of size 2 clusters
  216000 = # of size 3 clusters
   35668 = # of size 4 clusters
  680410 = # of frozen angles
  find clusters CPU = 3.039 seconds
PPPM initialization ...
  using 12-bit tables for long-range coulomb (src/kspace.cpp:340)
  G vector (1/distance) = 0.20978357
  grid = 150 160 64
  stencil order = 5
  estimated absolute RMS force accuracy = 0.040128925
  estimated relative force accuracy = 0.00012084707
  using double precision FFTW3
  3d grid and FFT values/proc = 1950 600
Neighbor list info ...
  update every 1 steps, delay 0 steps, check yes
  max neighbors/atom: 2000, page size: 100000
  master list distance cutoff = 14
  ghost atom cutoff = 14
  binsize = 7, bins = 63 65 21
  1 neighbor lists, perpetual/occasional/extra = 1 0 0
  (1) pair lj/charmm/coul/long/opt, perpetual
      attributes: half, newton on
      pair build: half/bin/newton
      stencil: half/bin/3d
      bin: standard
Setting up Verlet run ...
  Unit style    : real
  Current step  : 0
  Time step     : 2
Per MPI rank memory allocation (min/avg/max) = 24.91 | 25.48 | 26.33 Mbytes
---------------- Step        0 ----- CPU =      0.0000 (sec) ----------------
TotEng   =  -5198527.1898 KinEng   =   1900046.9846 Temp     =       299.7955 
PotEng   =  -7098574.1743 E_bond   =    106470.9532 E_angle  =    555576.1131 
E_dihed  =    249732.3951 E_impro  =      6486.5045 E_vdwl   =    322655.5854 
E_coul   =  22202828.1578 E_long   = -30542323.8834 Press    =        40.6963 
Volume   =  28808466.4245 
---------------- Step     1000 ----- CPU =     64.3456 (sec) ----------------
TotEng   =  -5198871.8220 KinEng   =   1900936.8569 Temp     =       299.9360 
PotEng   =  -7099808.6789 E_bond   =    106326.7977 E_angle  =    557212.3330 
E_dihed  =    249454.6054 E_impro  =      6453.0213 E_vdwl   =    321571.0375 
E_coul   =  22201562.8293 E_long   = -30542389.3031 Press    =        38.9135 
Volume   =  28785239.9220 
---------------- Step     2000 ----- CPU =     82.0213 (sec) ----------------
TotEng   =  -5199206.2782 KinEng   =   1901730.2860 Temp     =       300.0611 
PotEng   =  -7100936.5642 E_bond   =    106432.1821 E_angle  =    557486.6360 
E_dihed  =    249253.8116 E_impro  =      6495.6890 E_vdwl   =    320945.8606 
E_coul   =  22200799.3219 E_long   = -30542350.0654 Press    =        30.3363 
Volume   =  28782432.3107 
---------------- Step     3000 ----- CPU =     99.7725 (sec) ----------------
TotEng   =  -5201441.9625 KinEng   =   1901550.5894 Temp     =       300.0328 
PotEng   =  -7102992.5518 E_bond   =    106206.0770 E_angle  =    556307.8678 
E_dihed  =    249456.9449 E_impro  =      6411.2717 E_vdwl   =    321665.5323 
E_coul   =  22199367.0510 E_long   = -30542407.2964 Press    =        44.7457 
Volume   =  28779399.9797 
---------------- Step     4000 ----- CPU =    117.4910 (sec) ----------------
TotEng   =  -5201855.4940 KinEng   =   1902010.6499 Temp     =       300.1054 
PotEng   =  -7103866.1439 E_bond   =    106443.5271 E_angle  =    555732.2172 
E_dihed  =    249364.3302 E_impro  =      6437.6203 E_vdwl   =    321887.0036 
E_coul   =  22198744.3826 E_long   = -30542475.2250 Press    =        17.4246 
Volume   =  28787312.4902 
---------------- Step     5000 ----- CPU =    135.1797 (sec) ----------------
TotEng   =  -5200117.7645 KinEng   =   1901747.8315 Temp     =       300.0639 
PotEng   =  -7101865.5960 E_bond   =    105961.7064 E_angle  =    557415.5964 
E_dihed  =    249502.6042 E_impro  =      6527.7807 E_vdwl   =    322911.6364 
E_coul   =  22198106.5340 E_long   = -30542291.4542 Press    =        49.7123 
Volume   =  28782654.7011 
---------------- Step     6000 ----- CPU =    152.9371 (sec) ----------------
TotEng   =  -5200716.9954 KinEng   =   1900782.3279 Temp     =       299.9116 
PotEng   =  -7101499.3233 E_bond   =    106298.3634 E_angle  =    556663.2277 
E_dihed  =    249547.7240 E_impro  =      6438.5734 E_vdwl   =    320093.9451 
E_coul   =  22201883.5529 E_long   = -30542424.7100 Press    =       -11.5012 
Volume   =  28792681.9737 
---------------- Step     7000 ----- CPU =    170.6554 (sec) ----------------
TotEng   =  -5200280.2337 KinEng   =   1901423.7603 Temp     =       300.0128 
PotEng   =  -7101703.9940 E_bond   =    106146.5379 E_angle  =    556497.8483 
E_dihed  =    249524.3128 E_impro  =      6445.1435 E_vdwl   =    320904.4092 
E_coul   =  22201241.9397 E_long   = -30542464.1853 Press    =        22.3603 
Volume   =  28793234.2151 
---------------- Step     8000 ----- CPU =    188.3778 (sec) ----------------
TotEng   =  -5197804.9621 KinEng   =   1902312.8718 Temp     =       300.1531 
PotEng   =  -7100117.8339 E_bond   =    105974.0378 E_angle  =    557225.4723 
E_dihed  =    249464.1478 E_impro  =      6473.3392 E_vdwl   =    321607.8671 
E_coul   =  22201535.6318 E_long   = -30542398.3299 Press    =        26.8485 
Volume   =  28790580.3946 
---------------- Step     9000 ----- CPU =    206.0788 (sec) ----------------
TotEng   =  -5204172.8760 KinEng   =   1900076.6280 Temp     =       299.8002 
PotEng   =  -7104249.5040 E_bond   =    106019.9635 E_angle  =    555973.0473 
E_dihed  =    249036.8745 E_impro  =      6480.8386 E_vdwl   =    319979.1301 
E_coul   =  22200575.0345 E_long   = -30542314.3926 Press    =        15.1106 
Volume   =  28787750.6397 
---------------- Step    10000 ----- CPU =    223.8092 (sec) ----------------
TotEng   =  -5201427.9574 KinEng   =   1900614.1819 Temp     =       299.8850 
PotEng   =  -7102042.1393 E_bond   =    106591.3980 E_angle  =    557323.8458 
E_dihed  =    249495.1322 E_impro  =      6414.1481 E_vdwl   =    322044.6337 
E_coul   =  22198490.4095 E_long   = -30542401.7067 Press    =        27.6018 
Volume   =  28780514.2962 
Loop time of 223.81 on 4096 procs for 10000 steps with 2997924 atoms

Performance: 7.721 ns/day, 3.108 hours/ns, 44.681 timesteps/s
99.9% CPU use with 4096 MPI tasks x 1 OpenMP threads

MPI task timing breakdown:
Section |  min time  |  avg time  |  max time  |%varavg| %total
---------------------------------------------------------------
Pair    | 62.663     | 72.163     | 90.398     |  54.7 | 32.24
Bond    | 0.0059112  | 1.0944     | 3.8577     | 127.4 |  0.49
Kspace  | 36.054     | 57.467     | 68.31      |  76.1 | 25.68
Neigh   | 22.112     | 22.244     | 22.372     |   1.0 |  9.94
Comm    | 5.9342     | 6.9483     | 8.2845     |  15.8 |  3.10
Output  | 52.321     | 52.321     | 52.321     |   0.0 | 23.38
Modify  | 8.6999     | 9.8531     | 10.4       |   8.9 |  4.40
Other   |            | 1.719      |            |       |  0.77

Nlocal:        731.915 ave         835 max         659 min
Histogram: 26 223 804 1058 743 680 420 113 24 5
Nghost:        10484.0 ave       11168 max        9993 min
Histogram: 68 746 748 422 580 535 532 361 92 12
Neighs:        438319.0 ave      560381 max      360281 min
Histogram: 42 435 702 997 985 612 211 71 32 9

Total # of neighbors = 1.7953543e+09
Ave neighs/atom = 598.86586
Ave special neighs/atom = 4.8989434
Neighbor list builds = 1368
Dangerous builds = 0
Total wall time: 0:06:19
