
     Program PWSCF v.6.8 starts on  5Apr2022 at 16:59:57 

     This program is part of the open-source Quantum ESPRESSO suite
     for quantum simulation of materials; please cite
         "P. Giannozzi et al., J. Phys.:Condens. Matter 21 395502 (2009);
         "P. Giannozzi et al., J. Phys.:Condens. Matter 29 465901 (2017);
         "P. Giannozzi et al., J. Chem. Phys. 152 154105 (2020);
          URL http://www.quantum-espresso.org", 
     in publications or presentations arising from this work. More details at
     http://www.quantum-espresso.org/quote

     Parallel version (MPI & OpenMP), running on     128 processor cores
     Number of MPI processes:                16
     Threads/MPI process:                     8

     MPI processes distributed on     1 nodes
     R & G space division:  proc/nbgrp/npool/nimage =      16
     247917 MiB available memory on the printing compute node when the environment starts

     Reading input from pw.in
Warning: card  1 1 1 0 0 0 ignored

     Current dimensions of program PWSCF are:
     Max number of different atomic species (ntypx) = 10
     Max number of k-points (npk) =  40000
     Max angular momentum in pseudopotentials (lmaxx) =  4

     gamma-point specific algorithms are used

     Subspace diagonalization in iterative solution of the eigenvalue problem:
     one sub-group per band group will be used
     scalapack distributed-memory algorithm (size of sub-group:  4*  4 procs)


     Parallelization info
     --------------------
     sticks:   dense  smooth     PW     G-vecs:    dense   smooth      PW
     Min       12306    6154   1538              3454649  1221459  152690
     Max       12308    6158   1540              3454658  1221466  152698
     Sum      196905   98475  24617             55274481 19543423 2443081

     Using Slab Decomposition



     bravais-lattice index     =            3
     lattice parameter (alat)  =     132.2800  a.u.
     unit-cell volume          = 1157317.6142 (a.u.)^3
     number of atoms/cell      =         1532
     number of atomic types    =            4
     number of electrons       =      5232.00
     number of Kohn-Sham states=         2616
     kinetic-energy cutoff     =      25.0000  Ry
     charge density cutoff     =     200.0000  Ry
     scf convergence threshold =      1.0E-08
     mixing beta               =       0.7000
     number of iterations used =            8  plain     mixing
     Exchange-correlation=  SLA  PW   PBE  PBE
                           (   1   4   3   4   0   0   0)

     celldm(1)= 132.280000  celldm(2)=   0.000000  celldm(3)=   0.000000
     celldm(4)=   0.000000  celldm(5)=   0.000000  celldm(6)=   0.000000

     crystal axes: (cart. coord. in units of alat)
               a(1) = (   0.500000   0.500000   0.500000 )  
               a(2) = (  -0.500000   0.500000   0.500000 )  
               a(3) = (  -0.500000  -0.500000   0.500000 )  

     reciprocal axes: (cart. coord. in units 2 pi/alat)
               b(1) = (  1.000000  0.000000  1.000000 )  
               b(2) = ( -1.000000  1.000000  0.000000 )  
               b(3) = (  0.000000 -1.000000  1.000000 )  


     PseudoPot. # 1 for C  read from file:
     ./C.pbe-van_bm.UPF
     MD5 check sum: e4f7dbf85a2f75a81fad2d06dff71e9b
     Pseudo is Ultrasoft, Zval =  4.0
     Generated by new atomic code, or converted to UPF format
     Using radial grid of  721 points,  4 beta functions with: 
                l(1) =   0
                l(2) =   0
                l(3) =   1
                l(4) =   1
     Q(r) pseudized with  8 coefficients,  rinner =    0.800   0.800   0.800


     PseudoPot. # 2 for O  read from file:
     ./O.pbe-van_bm.UPF
     MD5 check sum: 4ca1d2dcc4543cd354a8ff185f9ac88d
     Pseudo is Ultrasoft, Zval =  6.0
     Generated by new atomic code, or converted to UPF format
     Using radial grid of  737 points,  4 beta functions with: 
                l(1) =   0
                l(2) =   0
                l(3) =   1
                l(4) =   1
     Q(r) pseudized with  8 coefficients,  rinner =    0.800   0.800   0.800


     PseudoPot. # 3 for N  read from file:
     ./N.pbe-van_bm.UPF
     MD5 check sum: c8f3f2d4a537ec8aeb07eb2bc5891112
     Pseudo is Ultrasoft, Zval =  5.0
     Generated by new atomic code, or converted to UPF format
     Using radial grid of  729 points,  4 beta functions with: 
                l(1) =   0
                l(2) =   0
                l(3) =   1
                l(4) =   1
     Q(r) pseudized with  8 coefficients,  rinner =    0.800   0.800   0.800


     PseudoPot. # 4 for H  read from file:
     ./H.pbe-van_bm.UPF
     MD5 check sum: e88bdb428b1ed4f3381cef661f416cd4
     Pseudo is Ultrasoft, Zval =  1.0
     Generated by new atomic code, or converted to UPF format
     Using radial grid of  615 points,  1 beta functions with: 
                l(1) =   0
     Q(r) pseudized with  8 coefficients,  rinner =    0.800

     atomic species   valence    mass     pseudopotential
        C              4.00    12.01070     C ( 1.00)
        O              6.00    15.99940     O ( 1.00)
        N              5.00    14.00674     N ( 1.00)
        H              1.00     1.00794     H ( 1.00)

     No symmetry found



   Cartesian axes

     site n.     atom                  positions (alat units)
         1           C   tau(   1) = (   0.2805303   0.5810179   0.3802309  )
         2           C   tau(   2) = (   0.2693588   0.5871751   0.3636451  )
         3           C   tau(   3) = (   0.2724445   0.6061752   0.3554593  )
         4           C   tau(   4) = (   0.2874589   0.6185610   0.3631451  )
         5           C   tau(   5) = (   0.3002876   0.6113181   0.3780023  )
         6           C   tau(   6) = (   0.2967161   0.5926465   0.3867024  )
         7           O   tau(   7) = (   0.2758017   0.5645178   0.3891310  )
         8           C   tau(   8) = (   0.2889446   0.6385040   0.3569022  )
         9           C   tau(   9) = (   0.2731445   0.6516183   0.3607737  )
        10           C   tau(  10) = (   0.3064876   0.6450754   0.3477164  )
        11           C   tau(  11) = (   0.2567730   0.6474040   0.3731309  )
        12           C   tau(  12) = (   0.2443015   0.6640470   0.3724166  )
        13           C   tau(  13) = (   0.2534016   0.6778613   0.3596022  )
        14           N   tau(  14) = (   0.2709302   0.6701613   0.3528165  )
        15           C   tau(  15) = (   0.3207734   0.6326753   0.3387450  )
        16           C   tau(  16) = (   0.3372164   0.6446754   0.3342164  )
        17           C   tau(  17) = (   0.3326449   0.6640327   0.3408307  )
        18           N   tau(  18) = (   0.3137448   0.6639898   0.3481164  )
        19           C   tau(  19) = (   0.3460736   0.6800185   0.3419164  )
        20           C   tau(  20) = (   0.3666594   0.6765185   0.3396878  )
        21           C   tau(  21) = (   0.3762166   0.6618041   0.3511450  )
        22           C   tau(  22) = (   0.3964882   0.6576326   0.3481593  )
        23           C   tau(  23) = (   0.4075311   0.6683470   0.3339449  )
        24           C   tau(  24) = (   0.3981168   0.6835185   0.3229591  )
        25           C   tau(  25) = (   0.3778023   0.6875614   0.3258020  )
        26           C   tau(  26) = (   0.4282741   0.6637041   0.3306449  )
        27           C   tau(  27) = (   0.3392021   0.6994615   0.3452593  )
        28           C   tau(  28) = (   0.3508736   0.7153616   0.3522736  )
        29           C   tau(  29) = (   0.3385164   0.7321045   0.3528022  )
        30           C   tau(  30) = (   0.3197020   0.7259474   0.3459736  )
        31           N   tau(  31) = (   0.3203306   0.7060901   0.3417164  )
        32           C   tau(  32) = (   0.3031447   0.7384046   0.3431878  )
        33           C   tau(  33) = (   0.3055876   0.7592476   0.3430450  )
        34           C   tau(  34) = (   0.3199163   0.7681762   0.3306592  )
        35           C   tau(  35) = (   0.3224306   0.7889477   0.3307020  )
        36           C   tau(  36) = (   0.3104162   0.8010335   0.3429164  )
        37           C   tau(  37) = (   0.2959590   0.7920906   0.3551593  )
        38           C   tau(  38) = (   0.2935732   0.7713191   0.3552593  )
        39           C   tau(  39) = (   0.3128591   0.8223908   0.3428307  )
        40           C   tau(  40) = (   0.2840589   0.7302902   0.3406450  )
        41           N   tau(  41) = (   0.2777731   0.7124044   0.3477736  )
        42           C   tau(  42) = (   0.2675874   0.7403332   0.3324878  )
        43           C   tau(  43) = (   0.2509158   0.7282188   0.3356878  )
        44           C   tau(  44) = (   0.2576587   0.7111187   0.3457307  )
        45           C   tau(  45) = (   0.2454729   0.6964472   0.3542736  )
        46           H   tau(  46) = (   0.2580016   0.5779036   0.3579308  )
        47           H   tau(  47) = (   0.2633016   0.6112038   0.3436593  )
        48           H   tau(  48) = (   0.3122019   0.6202181   0.3832024  )
        49           H   tau(  49) = (   0.3062733   0.5873322   0.3980168  )
        50           H   tau(  50) = (   0.2544730   0.6343754   0.3816452  )
        51           H   tau(  51) = (   0.2308729   0.6659756   0.3804166  )
        52           H   tau(  52) = (   0.3195734   0.6171753   0.3362878  )
        53           H   tau(  53) = (   0.3505879   0.6399468   0.3274306  )
        54           H   tau(  54) = (   0.3681880   0.6539183   0.3621451  )
        55           H   tau(  55) = (   0.4034596   0.6463183   0.3566165  )
        56           H   tau(  56) = (   0.4062882   0.6917471   0.3123019  )
        57           H   tau(  57) = (   0.3708023   0.6986900   0.3171305  )
        58           H   tau(  58) = (   0.4294884   0.6510469   0.3211020  )
        59           H   tau(  59) = (   0.4360313   0.6758328   0.3238591  )
        60           H   tau(  60) = (   0.4356313   0.6604184   0.3443593  )
        61           H   tau(  61) = (   0.3659594   0.7147473   0.3567308  )
        62           H   tau(  62) = (   0.3425164   0.7464761   0.3578022  )
        63           H   tau(  63) = (   0.3286877   0.7593047   0.3210591  )
        64           H   tau(  64) = (   0.3333878   0.7954906   0.3215020  )
        65           H   tau(  65) = (   0.2869303   0.8010192   0.3644737  )
        66           H   tau(  66) = (   0.2829160   0.7647476   0.3648165  )
        67           H   tau(  67) = (   0.3234163   0.8266480   0.3539450  )
        68           H   tau(  68) = (   0.3180448   0.8275766   0.3287163  )
        69           H   tau(  69) = (   0.2991019   0.8297909   0.3458593  )
        70           H   tau(  70) = (   0.2676302   0.7544904   0.3256163  )
        71           H   tau(  71) = (   0.2360729   0.7315331   0.3316449  )
        72           C   tau(  72) = (   0.2252014   0.7005615   0.3578736  )
        73           C   tau(  73) = (   0.2196585   0.7177759   0.3684309  )
        74           C   tau(  74) = (   0.1995012   0.7216330   0.3724737  )
        75           C   tau(  75) = (   0.1846869   0.7082758   0.3660737  )
        76           C   tau(  76) = (   0.1902440   0.6911043   0.3554308  )
        77           C   tau(  77) = (   0.2103727   0.6873328   0.3512450  )
        78           C   tau(  78) = (   0.1640010   0.7122616   0.3704309  )
        79           H   tau(  79) = (   0.2306871   0.7276902   0.3737309  )
        80           H   tau(  80) = (   0.1954869   0.7345474   0.3805309  )
        81           H   tau(  81) = (   0.1792440   0.6809328   0.3505879  )
        82           H   tau(  82) = (   0.2143442   0.6745613   0.3429164  )
        83           H   tau(  83) = (   0.1606724   0.7276759   0.3684166  )
        84           H   tau(  84) = (   0.1608153   0.7083187   0.3855024  )
        85           H   tau(  85) = (   0.1542724   0.7039901   0.3609451  )
        86           H   tau(  86) = (   0.3085305   0.6743470   0.3568879  )
        87           H   tau(  87) = (   0.2853446   0.7045329   0.3573736  )
        88           C   tau(  88) = (   0.2757874   0.5624178   0.4083882  )
        89           O   tau(  89) = (   0.2739303   0.5784322   0.4201026  )
        90           C   tau(  90) = (   0.5875894   0.5160746   0.3007161  )
        91           C   tau(  91) = (   0.5752178   0.5228318   0.2852589  )
        92           C   tau(  92) = (   0.5774463   0.5422605   0.2778446  )
        93           C   tau(  93) = (   0.5927465   0.5545749   0.2851018  )
        94           C   tau(  94) = (   0.6065180   0.5469320   0.2988876  )
        95           C   tau(  95) = (   0.6039036   0.5277461   0.3067590  )
        96           O   tau(  96) = (   0.5836608   0.4991174   0.3091876  )
        97           C   tau(  97) = (   0.5939180   0.5746464   0.2791874  )
        98           C   tau(  98) = (   0.5780322   0.5875465   0.2834018  )
        99           C   tau(  99) = (   0.6114181   0.5816465   0.2702017  )
       100           C   tau( 100) = (   0.5621463   0.5832465   0.2963447  )
       101           C   tau( 101) = (   0.5495748   0.5998323   0.2961304  )
       102           C   tau( 102) = (   0.5580892   0.6137038   0.2829589  )
       103           N   tau( 103) = (   0.5754178   0.6060895   0.2755446  )
       104           C   tau( 104) = (   0.6261896   0.5695750   0.2615445  )
       105           C   tau( 105) = (   0.6425897   0.5818750   0.2577445  )
       106           C   tau( 106) = (   0.6374468   0.6010894   0.2643159  )
       107           N   tau( 107) = (   0.6183181   0.6006751   0.2709588  )
       108           C   tau( 108) = (   0.6505612   0.6172753   0.2659731  )
       109           C   tau( 109) = (   0.6712899   0.6139752   0.2654302  )
       110           C   tau( 110) = (   0.6800471   0.5997466   0.2780589  )
       111           C   tau( 111) = (   0.7006758   0.5963608   0.2774303  )
       112           C   tau( 112) = (   0.7128044   0.6073466   0.2643588  )
       113           C   tau( 113) = (   0.7040472   0.6216181   0.2517730  )
       114           C   tau( 114) = (   0.6833899   0.6248753   0.2522587  )
       115           C   tau( 115) = (   0.7340617   0.6040609   0.2639588  )
       116           C   tau( 116) = (   0.6431897   0.6366897   0.2683017  )
       117           C   tau( 117) = (   0.6543041   0.6531612   0.2749160  )
       118           C   tau( 118) = (   0.6416183   0.6696470   0.2741588  )
       119           C   tau( 119) = (   0.6231467   0.6627327   0.2671017  )
       120           N   tau( 120) = (   0.6243182   0.6427183   0.2638588  )
       121           C   tau( 121) = (   0.6064466   0.6746756   0.2632159  )
       122           C   tau( 122) = (   0.6088038   0.6954186   0.2609588  )
       123           C   tau( 123) = (   0.6232324   0.7030472   0.2478301  )
       124           C   tau( 124) = (   0.6257896   0.7237045   0.2458015  )
       125           C   tau( 125) = (   0.6137752   0.7369617   0.2567159  )
       126           C   tau( 126) = (   0.5993179   0.7293331   0.2698017  )
       127           C   tau( 127) = (   0.5968894   0.7086758   0.2719731  )
       128           C   tau( 128) = (   0.6162322   0.7582047   0.2544444  )
       129           C   tau( 129) = (   0.5874322   0.6661613   0.2616588  )
       130           N   tau( 130) = (   0.5816893   0.6485183   0.2698017  )
       131           C   tau( 131) = (   0.5705321   0.6754613   0.2534873  )
       132           C   tau( 132) = (   0.5542033   0.6632327   0.2577730  )
       133           C   tau( 133) = (   0.5615606   0.6467469   0.2683874  )
       134           C   tau( 134) = (   0.5498891   0.6322611   0.2779160  )
       135           H   tau( 135) = (   0.5636606   0.5136318   0.2798446  )
       136           H   tau( 136) = (   0.5675178   0.5476462   0.2668588  )
       137           H   tau( 137) = (   0.6185181   0.5558463   0.3038590  )
       138           H   tau( 138) = (   0.6142752   0.5220747   0.3171734  )
       139           H   tau( 139) = (   0.5602605   0.5702321   0.3049876  )
       140           H   tau( 140) = (   0.5365033   0.6017323   0.3046876  )
       141           H   tau( 141) = (   0.6253610   0.5540749   0.2589587  )
       142           H   tau( 142) = (   0.6563469   0.5774036   0.2515301  )
       143           H   tau( 143) = (   0.6711470   0.5917180   0.2882875  )
       144           H   tau( 144) = (   0.7070901   0.5855036   0.2868732  )
       145           H   tau( 145) = (   0.7129901   0.6298325   0.2417586  )
       146           H   tau( 146) = (   0.6769328   0.6353611   0.2424444  )
       147           H   tau( 147) = (   0.7374903   0.5922322   0.2538873  )
       148           H   tau( 148) = (   0.7418760   0.6170895   0.2592730  )
       149           H   tau( 149) = (   0.7395330   0.6001609   0.2783874  )
       150           H   tau( 150) = (   0.6692327   0.6531040   0.2799017  )
       151           H   tau( 151) = (   0.6451754   0.6843614   0.2784589  )
       152           H   tau( 152) = (   0.6320611   0.6932329   0.2392301  )
       153           H   tau( 153) = (   0.6367897   0.7292759   0.2360300  )
       154           H   tau( 154) = (   0.5903322   0.7391617   0.2782017  )
       155           H   tau( 155) = (   0.5862893   0.7031186   0.2822017  )
       156           H   tau( 156) = (   0.6268896   0.7635476   0.2649731  )
       157           H   tau( 157) = (   0.6212896   0.7619190   0.2398158  )
       158           H   tau( 158) = (   0.6025179   0.7659047   0.2568159  )
       159           H   tau( 159) = (   0.5701178   0.6892186   0.2458444  )
       160           H   tau( 160) = (   0.5391891   0.6660898   0.2540444  )
       161           C   tau( 161) = (   0.5299461   0.6366182   0.2828018  )
       162           C   tau( 162) = (   0.5252461   0.6541898   0.2931875  )
       163           C   tau( 163) = (   0.5054888   0.6582469   0.2986876  )
       164           C   tau( 164) = (   0.4901745   0.6447754   0.2939018  )
       165           C   tau( 165) = (   0.4948174   0.6273753   0.2831875  )
       166           C   tau( 166) = (   0.5145603   0.6233896   0.2775303  )
       167           C   tau( 167) = (   0.4699886   0.6488469   0.3000733  )
       168           H   tau( 168) = (   0.5366748   0.6642184   0.2973018  )
       169           H   tau( 169) = (   0.5021460   0.6714042   0.3066733  )
       170           H   tau( 170) = (   0.4834459   0.6171753   0.2793874  )
       171           H   tau( 171) = (   0.5178032   0.6104609   0.2691445  )
       172           H   tau( 172) = (   0.4660886   0.6639613   0.2969590  )
       173           H   tau( 173) = (   0.4685315   0.6463754   0.3157162  )
       174           H   tau( 174) = (   0.4594743   0.6395468   0.2925875  )
       175           H   tau( 175) = (   0.6127038   0.6108324   0.2797017  )
       176           H   tau( 176) = (   0.5896894   0.6412325   0.2795160  )
       177           C   tau( 177) = (   0.5846036   0.4964031   0.3283592  )
       178           O   tau( 178) = (   0.5835465   0.5120889   0.3406021  )
       179           C   tau( 179) = (   0.6211181   0.4736601   0.5013602  )
       180           C   tau( 180) = (   0.6110322   0.4911888   0.5067317  )
       181           C   tau( 181) = (   0.6169752   0.5019460   0.5236461  )
       182           C   tau( 182) = (   0.6333324   0.4954459   0.5350176  )
       183           C   tau( 183) = (   0.6447897   0.4792744   0.5282318  )
       184           C   tau( 184) = (   0.6389040   0.4686315   0.5112317  )
       185           O   tau( 185) = (   0.6138181   0.4626457   0.4871887  )
       186           C   tau( 186) = (   0.6379611   0.5046746   0.5533034  )
       187           C   tau( 187) = (   0.6231896   0.5068317   0.5679321  )
       188           C   tau( 188) = (   0.6575755   0.5107746   0.5570892  )
       189           C   tau( 189) = (   0.6045037   0.4973602   0.5678749  )
       190           C   tau( 190) = (   0.5943037   0.5041031   0.5847179  )
       191           C   tau( 191) = (   0.6070895   0.5174318   0.5945894  )
       192           N   tau( 192) = (   0.6245753   0.5187318   0.5843322  )
       193           C   tau( 193) = (   0.6722042   0.5144175   0.5425462  )
       194           C   tau( 194) = (   0.6903471   0.5164889   0.5526034  )
       195           C   tau( 195) = (   0.6863328   0.5139460   0.5730035  )
       196           N   tau( 196) = (   0.6663756   0.5113889   0.5753178  )
       197           C   tau( 197) = (   0.7006472   0.5119032   0.5880894  )
       198           C   tau( 198) = (   0.7205473   0.5074746   0.5831036  )
       199           C   tau( 199) = (   0.7249188   0.4915030   0.5702607  )
       200           C   tau( 200) = (   0.7447475   0.4871316   0.5652464  )
       201           C   tau( 201) = (   0.7604333   0.4984888   0.5732321  )
       202           C   tau( 202) = (   0.7560475   0.5144175   0.5861179  )
       203           C   tau( 203) = (   0.7362188   0.5189318   0.5909751  )
       204           C   tau( 204) = (   0.7808334   0.4937888   0.5683178  )
       205           C   tau( 205) = (   0.6952043   0.5140603   0.6081609  )
       206           C   tau( 206) = (   0.7063044   0.5072889   0.6245610  )
       207           C   tau( 207) = (   0.6960329   0.5132746   0.6416468  )
       208           C   tau( 208) = (   0.6789899   0.5235747   0.6351468  )
       209           N   tau( 209) = (   0.6786042   0.5236747   0.6148467  )
       210           C   tau( 210) = (   0.6650755   0.5330462   0.6475183  )
       211           C   tau( 211) = (   0.6700041   0.5373176   0.6674756  )
       212           C   tau( 212) = (   0.6879614   0.5470891   0.6720899  )
       213           C   tau( 213) = (   0.6929900   0.5510748   0.6919900  )
       214           C   tau( 214) = (   0.6800042   0.5455891   0.7074901  )
       215           C   tau( 215) = (   0.6619898   0.5359462   0.7028615  )
       216           C   tau( 216) = (   0.6570469   0.5317890   0.6829757  )
       217           C   tau( 217) = (   0.6850757   0.5498748   0.7279474  )
       218           C   tau( 218) = (   0.6462611   0.5383319   0.6401325  )
       219           N   tau( 219) = (   0.6367182   0.5294319   0.6246467  )
       220           C   tau( 220) = (   0.6332182   0.5522606   0.6488040  )
       221           C   tau( 221) = (   0.6151610   0.5508891   0.6384754  )
       222           C   tau( 222) = (   0.6176181   0.5361319   0.6238181  )
       223           C   tau( 223) = (   0.6024179   0.5281033   0.6119466  )
       224           H   tau( 224) = (   0.5984466   0.4958459   0.4984747  )
       225           H   tau( 225) = (   0.6090323   0.5148603   0.5278890  )
       226           H   tau( 226) = (   0.6575612   0.4747029   0.5362319  )
       227           H   tau( 227) = (   0.6479326   0.4569171   0.5058746  )
       228           H   tau( 228) = (   0.5993179   0.4867602   0.5574606  )
       229           H   tau( 229) = (   0.5799607   0.4996031   0.5893608  )
       230           H   tau( 230) = (   0.6700470   0.5149889   0.5269604  )
       231           H   tau( 231) = (   0.7044044   0.5190604   0.5460177  )
       232           H   tau( 232) = (   0.7132901   0.4825316   0.5645606  )
       233           H   tau( 233) = (   0.7478618   0.4752029   0.5554463  )
       234           H   tau( 234) = (   0.7677048   0.5231604   0.5920751  )
       235           H   tau( 235) = (   0.7330903   0.5311890   0.6003466  )
       236           H   tau( 236) = (   0.7852477   0.5018745   0.5553463  )
       237           H   tau( 237) = (   0.7906763   0.4976174   0.5802322  )
       238           H   tau( 238) = (   0.7826620   0.4782601   0.5654464  )
       239           H   tau( 239) = (   0.7196187   0.4989031   0.6241324  )
       240           H   tau( 240) = (   0.7001329   0.5102603   0.6565326  )
       241           H   tau( 241) = (   0.6976186   0.5517177   0.6605469  )
       242           H   tau( 242) = (   0.7066044   0.5582463   0.6953043  )
       243           H   tau( 243) = (   0.6521755   0.5316319   0.7143901  )
       244           H   tau( 244) = (   0.6436611   0.5241461   0.6797185  )
       245           H   tau( 245) = (   0.6932900   0.5377176   0.7341045  )
       246           H   tau( 246) = (   0.6939472   0.5630321   0.7290617  )
       247           H   tau( 247) = (   0.6720613   0.5521463   0.7367903  )
       248           H   tau( 248) = (   0.6363182   0.5617749   0.6609470  )
       249           H   tau( 249) = (   0.6021180   0.5592035   0.6413897  )
       250           C   tau( 250) = (   0.5823322   0.5306319   0.6175610  )
       251           C   tau( 251) = (   0.5761750   0.5261747   0.6370754  )
       252           C   tau( 252) = (   0.5562177   0.5288318   0.6427184  )
       253           C   tau( 253) = (   0.5421319   0.5358176   0.6288610  )
       254           C   tau( 254) = (   0.5482463   0.5400033   0.6092609  )
       255           C   tau( 255) = (   0.5682464   0.5375462   0.6036752  )
       256           C   tau( 256) = (   0.5216459   0.5386891   0.6347325  )
       257           H   tau( 257) = (   0.5865179   0.5204889   0.6475183  )
       258           H   tau( 258) = (   0.5517463   0.5254175   0.6574184  )
       259           H   tau( 259) = (   0.5377748   0.5450891   0.5986609  )
       260           H   tau( 260) = (   0.5727464   0.5412034   0.5890322  )
       261           H   tau( 261) = (   0.5206318   0.5434319   0.6498897  )
       262           H   tau( 262) = (   0.5136316   0.5250318   0.6331896  )
       263           H   tau( 263) = (   0.5145175   0.5497463   0.6258039  )
       264           H   tau( 264) = (   0.6604041   0.5055746   0.5872322  )
       265           H   tau( 265) = (   0.6410610   0.5169032   0.6187181  )
       266           C   tau( 266) = (   0.6146181   0.4432885   0.4869744  )
       267           O   tau( 267) = (   0.6185895   0.4331741   0.5036745  )
       268           C   tau( 268) = (   0.5417605   0.2376872   0.4399170  )
       269           C   tau( 269) = (   0.5225888   0.2339300   0.4473742  )
       270           C   tau( 270) = (   0.5184032   0.2157585   0.4568457  )
       271           C   tau( 271) = (   0.5328604   0.2005870   0.4574171  )
       272           C   tau( 272) = (   0.5513606   0.2037155   0.4480599  )
       273           C   tau( 273) = (   0.5559606   0.2223014   0.4396742  )
       274           O   tau( 274) = (   0.5458034   0.2553159   0.4330741  )
       275           C   tau( 275) = (   0.5291747   0.1826440   0.4677029  )
       276           C   tau( 276) = (   0.5108317   0.1728011   0.4658600  )
       277           C   tau( 277) = (   0.5439891   0.1745725   0.4800458  )
       278           C   tau( 278) = (   0.4965031   0.1760582   0.4509314  )
       279           C   tau( 279) = (   0.4800744   0.1641867   0.4556885  )
       280           C   tau( 280) = (   0.4849887   0.1538438   0.4732172  )
       281           N   tau( 281) = (   0.5037174   0.1590581   0.4790173  )
       282           C   tau( 282) = (   0.5600605   0.1850726   0.4884316  )
       283           C   tau( 283) = (   0.5729178   0.1708725   0.4966888  )
       284           C   tau( 284) = (   0.5643178   0.1521009   0.4931459  )
       285           N   tau( 285) = (   0.5465177   0.1548724   0.4839030  )
       286           C   tau( 286) = (   0.5735178   0.1336294   0.4963031  )
       287           C   tau( 287) = (   0.5944323   0.1324865   0.4978174  )
       288           C   tau( 288) = (   0.6065609   0.1420437   0.4836744  )
       289           C   tau( 289) = (   0.6273896   0.1410866   0.4852601  )
       290           C   tau( 290) = (   0.6363325   0.1303437   0.5008745  )
       291           C   tau( 291) = (   0.6241896   0.1207436   0.5150032  )
       292           C   tau( 292) = (   0.6033609   0.1218722   0.5135318  )
       293           C   tau( 293) = (   0.6577469   0.1291151   0.5023175  )
       294           C   tau( 294) = (   0.5619321   0.1163007   0.4976602  )
       295           C   tau( 295) = (   0.5688892   0.0967149   0.4951888  )
       296           C   tau( 296) = (   0.5526320   0.0841148   0.4984602  )
       297           C   tau( 297) = (   0.5362747   0.0964006   0.5029031  )
       298           N   tau( 298) = (   0.5421176   0.1158293   0.5020888  )
       299           C   tau( 299) = (   0.5171746   0.0898148   0.5082603  )
       300           C   tau( 300) = (   0.5142460   0.0700004   0.5145462  )
       301           C   tau( 301) = (   0.5266318   0.0615861   0.5292033  )
       302           C   tau( 302) = (   0.5239032   0.0417288   0.5351747  )
       303           C   tau( 303) = (   0.5085603   0.0301716   0.5268033  )
       304           C   tau( 304) = (   0.4960459   0.0386717   0.5123175  )
       305           C   tau( 305) = (   0.4988888   0.0584575   0.5061888  )
       306           C   tau( 306) = (   0.5056316   0.0098001   0.5330462  )
       307           C   tau( 307) = (   0.5009174   0.1029292   0.5074746  )
       308           N   tau( 308) = (   0.4992745   0.1189865   0.4952602  )
       309           C   tau( 309) = (   0.4827887   0.1005578   0.5177175  )
       310           C   tau( 310) = (   0.4698743   0.1153579   0.5106889  )
       311           C   tau( 311) = (   0.4804173   0.1262865   0.4962459  )
       312           C   tau( 312) = (   0.4723599   0.1408437   0.4836030  )
       313           H   tau( 313) = (   0.5115889   0.2451872   0.4467599  )
       314           H   tau( 314) = (   0.5045603   0.2138013   0.4640743  )
       315           H   tau( 315) = (   0.5619035   0.1920440   0.4472742  )
       316           H   tau( 316) = (   0.5699464   0.2245300   0.4327884  )
       317           H   tau( 317) = (   0.4979888   0.1852869   0.4382741  )
       318           H   tau( 318) = (   0.4667315   0.1629582   0.4474313  )
       319           H   tau( 319) = (   0.5622321   0.2006584   0.4883173  )
       320           H   tau( 320) = (   0.5866179   0.1737439   0.5038888  )
       321           H   tau( 321) = (   0.6000466   0.1497438   0.4715743  )
       322           H   tau( 322) = (   0.6363754   0.1484723   0.4746458  )
       323           H   tau( 323) = (   0.6307468   0.1127864   0.5268890  )
       324           H   tau( 324) = (   0.5944035   0.1149864   0.5245032  )
       325           H   tau( 325) = (   0.6632755   0.1413152   0.5109174  )
       326           H   tau( 326) = (   0.6623184   0.1155721   0.5092889  )
       327           H   tau( 327) = (   0.6645470   0.1296008   0.4879459  )
       328           H   tau( 328) = (   0.5834465   0.0923006   0.4911459  )
       329           H   tau( 329) = (   0.5526320   0.0684147   0.4973745  )
       330           H   tau( 330) = (   0.5378748   0.0702719   0.5359890  )
       331           H   tau( 331) = (   0.5334462   0.0354859   0.5460320  )
       332           H   tau( 332) = (   0.4845316   0.0300859   0.5058603  )
       333           H   tau( 333) = (   0.4896459   0.0645433   0.4949888  )
       334           H   tau( 334) = (   0.5134746   0.0000000   0.5232890  )
       335           H   tau( 335) = (   0.5109174   0.0074286   0.5478605  )
       336           H   tau( 336) = (   0.4902030   0.0058858   0.5328033  )
       337           H   tau( 337) = (   0.4794458   0.0896148   0.5285176  )
       338           H   tau( 338) = (   0.4550171   0.1176864   0.5153032  )
       339           C   tau( 339) = (   0.4515599   0.1425580   0.4813887  )
       340           C   tau( 340) = (   0.4398599   0.1256436   0.4774172  )
       341           C   tau( 341) = (   0.4190740   0.1273151   0.4758029  )
       342           C   tau( 342) = (   0.4097740   0.1459723   0.4778744  )
       343           C   tau( 343) = (   0.4215312   0.1629724   0.4813173  )
       344           C   tau( 344) = (   0.4422885   0.1612724   0.4831173  )
       345           C   tau( 345) = (   0.3883881   0.1477152   0.4765601  )
       346           H   tau( 346) = (   0.4467171   0.1116007   0.4753744  )
       347           H   tau( 347) = (   0.4104311   0.1144864   0.4728886  )
       348           H   tau( 348) = (   0.4147026   0.1771011   0.4826316  )
       349           H   tau( 349) = (   0.4509028   0.1741011   0.4861887  )
       350           H   tau( 350) = (   0.3811595   0.1339437   0.4798887  )
       351           H   tau( 351) = (   0.3842167   0.1521438   0.4618600  )
       352           H   tau( 352) = (   0.3829167   0.1585581   0.4868459  )
       353           H   tau( 353) = (   0.5396033   0.1443580   0.4766030  )
       354           H   tau( 354) = (   0.5083031   0.1215579   0.4841459  )
       355           C   tau( 355) = (   0.5623035   0.2648588   0.4366170  )
       356           O   tau( 356) = (   0.5739893   0.2591016   0.4516885  )
       357           C   tau( 357) = (   0.2450015   0.3143877   0.5445177  )
       358           C   tau( 358) = (   0.2296300   0.3122591   0.5585606  )
       359           C   tau( 359) = (   0.2283586   0.2950161   0.5703178  )
       360           C   tau( 360) = (   0.2422158   0.2795017   0.5678178  )
       361           C   tau( 361) = (   0.2582873   0.2821875   0.5546320  )
       362           C   tau( 362) = (   0.2601730   0.2999590   0.5437748  )
       363           O   tau( 363) = (   0.2451444   0.3303592   0.5335747  )
       364           C   tau( 364) = (   0.2400158   0.2614588   0.5783322  )
       365           C   tau( 365) = (   0.2213728   0.2520444   0.5792322  )
       366           C   tau( 366) = (   0.2565444   0.2526730   0.5876036  )
       367           C   tau( 367) = (   0.2050441   0.2559730   0.5667321  )
       368           C   tau( 368) = (   0.1892869   0.2441872   0.5735464  )
       369           C   tau( 369) = (   0.1965441   0.2333443   0.5899179  )
       370           N   tau( 370) = (   0.2160299   0.2381015   0.5929894  )
       371           C   tau( 371) = (   0.2743588   0.2624159   0.5927608  )
       372           C   tau( 372) = (   0.2879875   0.2476158   0.5982608  )
       373           C   tau( 373) = (   0.2780874   0.2292443   0.5963751  )
       374           N   tau( 374) = (   0.2589730   0.2328300   0.5907751  )
       375           C   tau( 375) = (   0.2869732   0.2103870   0.5976751  )
       376           C   tau( 376) = (   0.3077019   0.2084156   0.5950894  )
       377           C   tau( 377) = (   0.3172020   0.2174156   0.5787179  )
       378           C   tau( 378) = (   0.3378449   0.2154442   0.5760893  )
       379           C   tau( 379) = (   0.3492164   0.2042584   0.5896751  )
       380           C   tau( 380) = (   0.3397450   0.1953441   0.6061038  )
       381           C   tau( 381) = (   0.3191163   0.1974869   0.6088466  )
       382           C   tau( 382) = (   0.3703880   0.2019155   0.5867322  )
       383           C   tau( 383) = (   0.2751874   0.1935012   0.6012894  )
       384           C   tau( 384) = (   0.2809446   0.1736582   0.5979323  )
       385           C   tau( 385) = (   0.2652016   0.1616724   0.6043895  )
       386           C   tau( 386) = (   0.2503158   0.1745725   0.6114895  )
       387           N   tau( 387) = (   0.2565159   0.1937726   0.6092609  )
       388           C   tau( 388) = (   0.2323014   0.1686725   0.6203038  )
       389           C   tau( 389) = (   0.2301729   0.1491724   0.6277467  )
       390           C   tau( 390) = (   0.2447301   0.1410294   0.6404325  )
       391           C   tau( 391) = (   0.2426586   0.1215436   0.6477326  )
       392           C   tau( 392) = (   0.2258728   0.1100721   0.6426754  )
       393           C   tau( 393) = (   0.2113013   0.1182436   0.6300325  )
       394           C   tau( 394) = (   0.2134728   0.1376437   0.6225467  )
       395           C   tau( 395) = (   0.2235585   0.0901434   0.6504040  )
       396           C   tau( 396) = (   0.2163871   0.1821440   0.6217754  )
       397           N   tau( 397) = (   0.2132727   0.1980869   0.6096896  )
       398           C   tau( 398) = (   0.1999155   0.1802583   0.6345896  )
       399           C   tau( 399) = (   0.1863440   0.1951726   0.6292610  )
       400           C   tau( 400) = (   0.1948726   0.2057441   0.6133038  )
       401           C   tau( 401) = (   0.1853154   0.2203157   0.6017894  )
       402           H   tau( 402) = (   0.2188299   0.3236163   0.5601320  )
       403           H   tau( 403) = (   0.2169442   0.2937732   0.5810893  )
       404           H   tau( 404) = (   0.2689445   0.2707588   0.5527034  )
       405           H   tau( 405) = (   0.2732874   0.3025447   0.5354747  )
       406           H   tau( 406) = (   0.2047870   0.2655731   0.5542606  )
       407           H   tau( 407) = (   0.1748725   0.2433444   0.5672892  )
       408           H   tau( 408) = (   0.2771160   0.2779017   0.5922608  )
       409           H   tau( 409) = (   0.3029447   0.2498587   0.6026323  )
       410           H   tau( 410) = (   0.3087448   0.2254443   0.5681321  )
       411           H   tau( 411) = (   0.3448450   0.2223585   0.5638035  )
       412           H   tau( 412) = (   0.3481736   0.1871012   0.6165325  )
       413           H   tau( 413) = (   0.3122448   0.1910869   0.6214896  )
       414           H   tau( 414) = (   0.3781452   0.2141156   0.5933608  )
       415           H   tau( 415) = (   0.3757166   0.1884297   0.5932465  )
       416           H   tau( 416) = (   0.3740166   0.2014584   0.5712464  )
       417           H   tau( 417) = (   0.2943590   0.1686868   0.5913751  )
       418           H   tau( 418) = (   0.2645159   0.1459580   0.6036609  )
       419           H   tau( 419) = (   0.2571730   0.1496724   0.6447469  )
       420           H   tau( 420) = (   0.2537730   0.1155293   0.6571184  )
       421           H   tau( 421) = (   0.1987155   0.1096864   0.6259896  )
       422           H   tau( 422) = (   0.2026298   0.1434437   0.6127038  )
       423           H   tau( 423) = (   0.2290300   0.0795862   0.6398325  )
       424           H   tau( 424) = (   0.2315157   0.0882005   0.6640328  )
       425           H   tau( 425) = (   0.2082584   0.0868863   0.6533183  )
       426           H   tau( 426) = (   0.1979869   0.1695296   0.6459326  )
       427           H   tau( 427) = (   0.1723011   0.1977869   0.6358755  )
       428           C   tau( 428) = (   0.1643867   0.2219728   0.6021466  )
       429           C   tau( 429) = (   0.1523724   0.2050013   0.5995180  )
       430           C   tau( 430) = (   0.1315294   0.2066584   0.5999467  )
       431           C   tau( 431) = (   0.1224579   0.2253300   0.6028180  )
       432           C   tau( 432) = (   0.1344723   0.2423301   0.6052037  )
       433           C   tau( 433) = (   0.1553152   0.2406443   0.6049895  )
       434           C   tau( 434) = (   0.1010292   0.2270157   0.6033752  )
       435           H   tau( 435) = (   0.1590010   0.1909726   0.5968608  )
       436           H   tau( 436) = (   0.1226579   0.1938298   0.5979180  )
       437           H   tau( 437) = (   0.1278151   0.2564444   0.6072038  )
       438           H   tau( 438) = (   0.1641724   0.2534587   0.6072609  )
       439           H   tau( 439) = (   0.0943149   0.2137013   0.6088895  )
       440           H   tau( 440) = (   0.0954577   0.2297871   0.5887322  )
       441           H   tau( 441) = (   0.0964292   0.2389443   0.6128467  )
       442           H   tau( 442) = (   0.2503444   0.2227014   0.5849036  )
       443           H   tau( 443) = (   0.2205871   0.2003298   0.5973323  )
       444           C   tau( 444) = (   0.2537873   0.3324878   0.5163603  )
       445           O   tau( 445) = (   0.2598873   0.3167162   0.5058460  )
       446           C   tau( 446) = (   0.2898875   0.5274890   0.6009894  )
       447           C   tau( 447) = (   0.2779446   0.5418748   0.6103895  )
       448           C   tau( 448) = (   0.2851161   0.5523463   0.6270182  )
       449           C   tau( 449) = (   0.3041733   0.5481891   0.6347039  )
       450           C   tau( 450) = (   0.3165877   0.5347605   0.6244753  )
       451           C   tau( 451) = (   0.3098019   0.5252318   0.6071466  )
       452           O   tau( 452) = (   0.2823160   0.5176175   0.5861465  )
       453           C   tau( 453) = (   0.3106876   0.5572749   0.6524898  )
       454           C   tau( 454) = (   0.2980018   0.5581320   0.6690756  )
       455           C   tau( 455) = (   0.3299878   0.5652178   0.6537469  )
       456           C   tau( 456) = (   0.2808446   0.5464891   0.6719899  )
       457           C   tau( 457) = (   0.2720588   0.5530463   0.6896757  )
       458           C   tau( 458) = (   0.2841875   0.5684035   0.6970900  )
       459           N   tau( 459) = (   0.2999447   0.5711178   0.6845757  )
       460           C   tau( 460) = (   0.3421593   0.5705464   0.6375468  )
       461           C   tau( 461) = (   0.3610880   0.5746893   0.6453040  )
       462           C   tau( 462) = (   0.3599308   0.5718321   0.6660184  )
       463           N   tau( 463) = (   0.3408593   0.5669749   0.6707327  )
       464           C   tau( 464) = (   0.3760738   0.5718750   0.6792899  )
       465           C   tau( 465) = (   0.3955882   0.5690892   0.6720613  )
       466           C   tau( 466) = (   0.3998596   0.5532463   0.6590327  )
       467           C   tau( 467) = (   0.4193453   0.5503034   0.6520326  )
       468           C   tau( 468) = (   0.4348313   0.5630321   0.6581326  )
       469           C   tau( 469) = (   0.4305170   0.5789607   0.6710327  )
       470           C   tau( 470) = (   0.4109883   0.5820322   0.6778756  )
       471           C   tau( 471) = (   0.4549600   0.5597178   0.6513183  )
       472           C   tau( 472) = (   0.3728166   0.5745750   0.6997615  )
       473           C   tau( 473) = (   0.3863167   0.5697321   0.7150044  )
       474           C   tau( 474) = (   0.3776023   0.5758036   0.7329045  )
       475           C   tau( 475) = (   0.3590451   0.5841893   0.7280474  )
       476           N   tau( 476) = (   0.3562879   0.5830750   0.7079472  )
       477           C   tau( 477) = (   0.3457879   0.5930751   0.7415474  )
       478           C   tau( 478) = (   0.3525308   0.5989894   0.7605190  )
       479           C   tau( 479) = (   0.3698737   0.6105895   0.7624762  )
       480           C   tau( 480) = (   0.3766166   0.6164038   0.7813906  )
       481           C   tau( 481) = (   0.3659308   0.6109324   0.7985765  )
       482           C   tau( 482) = (   0.3485593   0.5994037   0.7966192  )
       483           C   tau( 483) = (   0.3419307   0.5934037   0.7777048  )
       484           C   tau( 484) = (   0.3726452   0.6171324   0.8180336  )
       485           C   tau( 485) = (   0.3258020   0.5960608   0.7362617  )
       486           N   tau( 486) = (   0.3154877   0.5852465   0.7225902  )
       487           C   tau( 487) = (   0.3125019   0.6092323   0.7456475  )
       488           C   tau( 488) = (   0.2935875   0.6054180   0.7377331  )
       489           C   tau( 489) = (   0.2958447   0.5899751   0.7237473  )
       490           C   tau( 490) = (   0.2803160   0.5797464   0.7142187  )
       491           H   tau( 491) = (   0.2633873   0.5446605   0.6050752  )
       492           H   tau( 492) = (   0.2761160   0.5633892   0.6337325  )
       493           H   tau( 493) = (   0.3310163   0.5316033   0.6299182  )
       494           H   tau( 494) = (   0.3199163   0.5167461   0.5985751  )
       495           H   tau( 495) = (   0.2757731   0.5346890   0.6628755  )
       496           H   tau( 496) = (   0.2590302   0.5472462   0.6963615  )
       497           H   tau( 497) = (   0.3379735   0.5711035   0.6223897  )
       498           H   tau( 498) = (   0.3738166   0.5788750   0.6370611  )
       499           H   tau( 499) = (   0.3884738   0.5432462   0.6547469  )
       500           H   tau( 500) = (   0.4223740   0.5384033   0.6421611  )
       501           H   tau( 501) = (   0.4419885   0.5887751   0.6755185  )
       502           H   tau( 502) = (   0.4078738   0.5943180   0.6872328  )
       503           H   tau( 503) = (   0.4575885   0.5680464   0.6380325  )
       504           H   tau( 504) = (   0.4655743   0.5642464   0.6622755  )
       505           H   tau( 505) = (   0.4575885   0.5443462   0.6482183  )
       506           H   tau( 506) = (   0.4002025   0.5625035   0.7133616  )
       507           H   tau( 507) = (   0.3836738   0.5740321   0.7473189  )
       508           H   tau( 508) = (   0.3777452   0.6152324   0.7496475  )
       509           H   tau( 509) = (   0.3897596   0.6249753   0.7826906  )
       510           H   tau( 510) = (   0.3405021   0.5950608   0.8094336  )
       511           H   tau( 511) = (   0.3290878   0.5843750   0.7764762  )
       512           H   tau( 512) = (   0.3813024   0.6055609   0.8246908  )
       513           H   tau( 513) = (   0.3815881   0.6302610   0.8172336  )
       514           H   tau( 514) = (   0.3603308   0.6203467   0.8275766  )
       515           H   tau( 515) = (   0.3159877   0.6198324   0.7567475  )
       516           H   tau( 516) = (   0.2801874   0.6126324   0.7417189  )
       517           C   tau( 517) = (   0.2607873   0.5808179   0.7218473  )
       518           C   tau( 518) = (   0.2571873   0.5774179   0.7422046  )
       519           C   tau( 519) = (   0.2377586   0.5787322   0.7498475  )
       520           C   tau( 520) = (   0.2216871   0.5832608   0.7371760  )
       521           C   tau( 521) = (   0.2252728   0.5863322   0.7167616  )
       522           C   tau( 522) = (   0.2447158   0.5852179   0.7091615  )
       523           C   tau( 523) = (   0.2017441   0.5848036   0.7450618  )
       524           H   tau( 524) = (   0.2690588   0.5735607   0.7517904  )
       525           H   tau( 525) = (   0.2352157   0.5761464   0.7651619  )
       526           H   tau( 526) = (   0.2132727   0.5895465   0.7070758  )
       527           H   tau( 527) = (   0.2472587   0.5880322   0.6938757  )
       528           H   tau( 528) = (   0.2018584   0.5894751   0.7602619  )
       529           H   tau( 529) = (   0.1945012   0.5706750   0.7441905  )
       530           H   tau( 530) = (   0.1931298   0.5954037   0.7369046  )
       531           H   tau( 531) = (   0.3370735   0.5607463   0.6833185  )
       532           H   tau( 532) = (   0.3204163   0.5728321   0.7168616  )
       533           C   tau( 533) = (   0.2880161   0.5001888   0.5798893  )
       534           O   tau( 534) = (   0.2996304   0.4885316   0.5911037  )
       535           C   tau( 535) = (   0.7502904   0.2751874   0.4152026  )
       536           C   tau( 536) = (   0.7777905   0.3935739   0.4215026  )
       537           C   tau( 537) = (   0.7598618   0.4431027   0.3121876  )
       538           C   tau( 538) = (   0.7216473   0.3552593   0.2376872  )
       539           C   tau( 539) = (   0.7154473   0.2513730   0.3011019  )
       540           C   tau( 540) = (   0.7301474   0.2443444   0.3629022  )
       541           C   tau( 541) = (   0.7684905   0.3323449   0.4374313  )
       542           C   tau( 542) = (   0.7744905   0.4364170   0.3740595  )
       543           C   tau( 543) = (   0.7395760   0.4124740   0.2597873  )
       544           C   tau( 544) = (   0.7123758   0.2939304   0.2534016  )
       545           C   tau( 545) = (   0.7053901   0.2488730   0.3359164  )
       546           C   tau( 546) = (   0.7190902   0.2446872   0.3205877  )
       547           C   tau( 547) = (   0.7429332   0.3061162   0.4327884  )
       548           C   tau( 548) = (   0.7567333   0.2917161   0.4263169  )
       549           C   tau( 549) = (   0.7603190   0.4202312   0.4040454  )
       550           C   tau( 550) = (   0.7781477   0.4103311   0.4089597  )
       551           C   tau( 551) = (   0.7332474   0.4337313   0.2892875  )
       552           C   tau( 552) = (   0.7536047   0.4369884   0.2931732  )
       553           C   tau( 553) = (   0.6996186   0.3280163   0.2473301  )
       554           C   tau( 554) = (   0.7174759   0.3347735   0.2386443  )
       555           C   tau( 555) = (   0.6964043   0.2747446   0.2798160  )
       556           C   tau( 556) = (   0.7119900   0.2772160   0.2659874  )
       557           C   tau( 557) = (   0.7232902   0.2609016   0.3945024  )
       558           C   tau( 558) = (   0.7364188   0.2504730   0.3819024  )
       559           C   tau( 559) = (   0.7571474   0.3668451   0.4363741  )
       560           C   tau( 560) = (   0.7727334   0.3528165   0.4365456  )
       561           C   tau( 561) = (   0.7510904   0.4458742   0.3479307  )
       562           C   tau( 562) = (   0.7707905   0.4429742   0.3545308  )
       563           C   tau( 563) = (   0.7135473   0.3888167   0.2507158  )
       564           C   tau( 564) = (   0.7331331   0.3960167   0.2485873  )
       565           C   tau( 565) = (   0.6796471   0.3033447   0.2648588  )
       566           C   tau( 566) = (   0.6971900   0.3083448   0.2545016  )
       567           C   tau( 567) = (   0.6966043   0.2547016   0.3706023  )
       568           C   tau( 568) = (   0.7106901   0.2485873   0.3563165  )
       569           C   tau( 569) = (   0.7337045   0.3397735   0.4426599  )
       570           C   tau( 570) = (   0.7486046   0.3257020   0.4381600  )
       571           C   tau( 571) = (   0.7396332   0.4402027   0.3819452  )
       572           C   tau( 572) = (   0.7585190   0.4326884   0.3871310  )
       573           C   tau( 573) = (   0.7060187   0.4176169   0.2715731  )
       574           C   tau( 574) = (   0.7264902   0.4218740   0.2732303  )
       575           C   tau( 575) = (   0.6885471   0.3625737   0.2496587  )
       576           C   tau( 576) = (   0.7079901   0.3692023   0.2453729  )
       577           C   tau( 577) = (   0.6826185   0.2622016   0.3109305  )
       578           C   tau( 578) = (   0.6980900   0.2623159   0.2967590  )
       579           C   tau( 579) = (   0.7161044   0.2846303   0.4209740  )
       580           C   tau( 580) = (   0.7299902   0.2729160   0.4104883  )
       581           C   tau( 581) = (   0.7428760   0.3991025   0.4279598  )
       582           C   tau( 582) = (   0.7596190   0.3865310   0.4292312  )
       583           C   tau( 583) = (   0.7255616   0.4471742   0.3221877  )
       584           C   tau( 584) = (   0.7458332   0.4460170   0.3275163  )
       585           C   tau( 585) = (   0.6793471   0.3957453   0.2606730  )
       586           C   tau( 586) = (   0.6995615   0.4011453   0.2603445  )
       587           C   tau( 587) = (   0.6624612   0.2831589   0.2894875  )
       588           C   tau( 588) = (   0.6792613   0.2866303   0.2775160  )
       589           C   tau( 589) = (   0.6889471   0.2691160   0.4028882  )
       590           C   tau( 590) = (   0.7028758   0.2608445   0.3896453  )
       591           C   tau( 591) = (   0.7225045   0.3741452   0.4443170  )
       592           C   tau( 592) = (   0.7379903   0.3602879   0.4418313  )
       593           C   tau( 593) = (   0.7164473   0.4520171   0.3568308  )
       594           C   tau( 594) = (   0.7359188   0.4467599   0.3623880  )
       595           C   tau( 595) = (   0.6988472   0.4402027   0.2988161  )
       596           C   tau( 596) = (   0.7193045   0.4410742   0.3031447  )
       597           C   tau( 597) = (   0.6655327   0.3356878   0.2571016  )
       598           C   tau( 598) = (   0.6843757   0.3420593   0.2506158  )
       599           C   tau( 599) = (   0.6713042   0.2574159   0.3449593  )
       600           C   tau( 600) = (   0.6862328   0.2554444   0.3304306  )
       601           C   tau( 601) = (   0.7083758   0.3141019   0.4404742  )
       602           C   tau( 602) = (   0.7225473   0.3012162   0.4320455  )
       603           C   tau( 603) = (   0.7256759   0.4269312   0.4125026  )
       604           C   tau( 604) = (   0.7432189   0.4158883   0.4154026  )
       605           C   tau( 605) = (   0.6912043   0.4546314   0.3310735  )
       606           C   tau( 606) = (   0.7112615   0.4522742   0.3365878  )
       607           C   tau( 607) = (   0.6541183   0.3699594   0.2583302  )
       608           C   tau( 608) = (   0.6738042   0.3763452   0.2552302  )
       609           C   tau( 609) = (   0.6483040   0.2697445   0.3199448  )
       610           C   tau( 610) = (   0.6641470   0.2708874   0.3063162  )
       611           C   tau( 611) = (   0.6817328   0.2920590   0.4298884  )
       612           C   tau( 612) = (   0.6956043   0.2811589   0.4186170  )
       613           C   tau( 613) = (   0.7086615   0.4067739   0.4372029  )
       614           C   tau( 614) = (   0.7250045   0.3937024   0.4374027  )
       615           C   tau( 615) = (   0.7052758   0.4475742   0.3909310  )
       616           C   tau( 616) = (   0.7238331   0.4391027   0.3956167  )
       617           C   tau( 617) = (   0.6716470   0.4249883   0.2804732  )
       618           C   tau( 618) = (   0.6921471   0.4283741   0.2829446  )
       619           C   tau( 619) = (   0.6452469   0.3107448   0.2736588  )
       620           C   tau( 620) = (   0.6631612   0.3162162   0.2643159  )
       621           C   tau( 621) = (   0.6622184   0.2618731   0.3796595  )
       622           C   tau( 622) = (   0.6765185   0.2569587   0.3651880  )
       623           C   tau( 623) = (   0.6993472   0.3473307   0.4515171  )
       624           C   tau( 624) = (   0.7139901   0.3335021   0.4458313  )
       625           C   tau( 625) = (   0.6914900   0.4346313   0.4217740  )
       626           C   tau( 626) = (   0.7089758   0.4234883   0.4246455  )
       627           C   tau( 627) = (   0.6645327   0.4478456   0.3075876  )
       628           C   tau( 628) = (   0.6849614   0.4485742   0.3120591  )
       629           C   tau( 629) = (   0.6310611   0.3430307   0.2655302  )
       630           C   tau( 630) = (   0.6499469   0.3494879   0.2592445  )
       631           C   tau( 631) = (   0.6369325   0.2646302   0.3539450  )
       632           C   tau( 632) = (   0.6518898   0.2629016   0.3393878  )
       633           C   tau( 633) = (   0.6740327   0.3215591   0.4493742  )
       634           C   tau( 634) = (   0.6881614   0.3086876   0.4408313  )
       635           C   tau( 635) = (   0.6883043   0.3817452   0.4535742  )
       636           C   tau( 636) = (   0.7036758   0.3677880   0.4508456  )
       637           C   tau( 637) = (   0.6821185   0.4594600   0.3657737  )
       638           C   tau( 638) = (   0.7015472   0.4540457   0.3713880  )
       639           C   tau( 639) = (   0.6449467   0.4031739   0.2694302  )
       640           C   tau( 640) = (   0.6651898   0.4085454   0.2692588  )
       641           C   tau( 641) = (   0.6281039   0.2906018   0.2983447  )
       642           C   tau( 642) = (   0.6449183   0.2941590   0.2864018  )
       643           C   tau( 643) = (   0.6545898   0.2761731   0.4120026  )
       644           C   tau( 644) = (   0.6684899   0.2680017   0.3986453  )
       645           C   tau( 645) = (   0.6650327   0.3548736   0.4603457  )
       646           C   tau( 646) = (   0.6796756   0.3409878   0.4547457  )
       647           C   tau( 647) = (   0.6709042   0.4548600   0.3999168  )
       648           C   tau( 648) = (   0.6895614   0.4466313   0.4047311  )
       649           C   tau( 649) = (   0.6372897   0.4323598   0.2894589  )
       650           C   tau( 650) = (   0.6578041   0.4359170   0.2917589  )
       651           C   tau( 651) = (   0.6108609   0.3181734   0.2824017  )
       652           C   tau( 652) = (   0.6287182   0.3235591   0.2728731  )
       653           C   tau( 653) = (   0.6278467   0.2689302   0.3887167  )
       654           C   tau( 654) = (   0.6421183   0.2639873   0.3742023  )
       655           C   tau( 655) = (   0.6473754   0.2994447   0.4387599  )
       656           C   tau( 656) = (   0.6612470   0.2883732   0.4276598  )
       657           C   tau( 657) = (   0.6745327   0.4144740   0.4465742  )
       658           C   tau( 658) = (   0.6908614   0.4013882   0.4468171  )
       659           C   tau( 659) = (   0.6569184   0.4622171   0.3399164  )
       660           C   tau( 660) = (   0.6769613   0.4598600   0.3454879  )
       661           C   tau( 661) = (   0.6197038   0.3773595   0.2669159  )
       662           C   tau( 662) = (   0.6393754   0.3837881   0.2638159  )
       663           C   tau( 663) = (   0.6140181   0.2772731   0.3289449  )
       664           C   tau( 664) = (   0.6298039   0.2783303   0.3152305  )
       665           C   tau( 665) = (   0.6202467   0.2834018   0.4209740  )
       666           C   tau( 666) = (   0.6341325   0.2750588   0.4077168  )
       667           C   tau( 667) = (   0.6540041   0.3893024   0.4624886  )
       668           C   tau( 668) = (   0.6693899   0.3753452   0.4598743  )
       669           C   tau( 669) = (   0.6476897   0.4664600   0.3746452  )
       670           C   tau( 670) = (   0.6671613   0.4612600   0.3803309  )
       671           C   tau( 671) = (   0.6106324   0.4103597   0.2786732  )
       672           C   tau( 672) = (   0.6308325   0.4158740   0.2782732  )
       673           C   tau( 673) = (   0.5938608   0.2982590   0.3073733  )
       674           C   tau( 674) = (   0.6106038   0.3016733   0.2952875  )
       675           C   tau( 675) = (   0.6026609   0.2721874   0.3629737  )
       676           C   tau( 676) = (   0.6175753   0.2703302   0.3483736  )
       677           C   tau( 677) = (   0.6396611   0.3291449   0.4579314  )
       678           C   tau( 678) = (   0.6538040   0.3161734   0.4495885  )
       679           C   tau( 679) = (   0.6572469   0.4421313   0.4309741  )
       680           C   tau( 680) = (   0.6748328   0.4311884   0.4339741  )
       681           C   tau( 681) = (   0.6302468   0.4554028   0.3164448  )
       682           C   tau( 682) = (   0.6506897   0.4562314   0.3208591  )
       683           C   tau( 683) = (   0.5966608   0.3504165   0.2741160  )
       684           C   tau( 684) = (   0.6155181   0.3568594   0.2677159  )
       685           C   tau( 685) = (   0.5798320   0.2850018   0.3380021  )
       686           C   tau( 686) = (   0.5955750   0.2860018   0.3242592  )
       687           C   tau( 687) = (   0.6129322   0.3071448   0.4471313  )
       688           C   tau( 688) = (   0.6268753   0.2958304   0.4364170  )
       689           C   tau( 689) = (   0.6403897   0.4221312   0.4559457  )
       690           C   tau( 690) = (   0.6566755   0.4090168   0.4560457  )
       691           C   tau( 691) = (   0.6225753   0.4695743   0.3487307  )
       692           C   tau( 692) = (   0.6426040   0.4672029   0.3543593  )
       693           C   tau( 693) = (   0.5853322   0.3846310   0.2757589  )
       694           C   tau( 694) = (   0.6050036   0.3911024   0.2727017  )
       695           C   tau( 695) = (   0.5766321   0.3259734   0.2915447  )
       696           C   tau( 696) = (   0.5943751   0.3310592   0.2816732  )
       697           C   tau( 697) = (   0.5935180   0.2762303   0.3977882  )
       698           C   tau( 698) = (   0.6077752   0.2712731   0.3832452  )
       699           C   tau( 699) = (   0.6306468   0.3624737   0.4688315  )
       700           C   tau( 700) = (   0.6453040   0.3485736   0.4633457  )
       701           C   tau( 701) = (   0.6363897   0.4615600   0.4087311  )
       702           C   tau( 702) = (   0.6551755   0.4537742   0.4136883  )
       703           C   tau( 703) = (   0.6030037   0.4393456   0.2990304  )
       704           C   tau( 704) = (   0.6234896   0.4432027   0.3008590  )
       705           C   tau( 705) = (   0.5620035   0.3579022   0.2821303  )
       706           C   tau( 706) = (   0.5810750   0.3642023   0.2761874  )
       707           C   tau( 707) = (   0.5685178   0.2802875   0.3721023  )
       708           C   tau( 708) = (   0.5833749   0.2782017   0.3574879  )
       709           C   tau( 709) = (   0.6053466   0.3367021   0.4665600  )
       710           C   tau( 710) = (   0.6194181   0.3238020   0.4580314  )
       711           C   tau( 711) = (   0.6227467   0.4489885   0.4399314  )
       712           C   tau( 712) = (   0.6406183   0.4386741   0.4432313  )
       713           C   tau( 713) = (   0.5959180   0.4635457   0.3251877  )
       714           C   tau( 714) = (   0.6164038   0.4639172   0.3296020  )
       715           C   tau( 715) = (   0.5764036   0.4172454   0.2883161  )
       716           C   tau( 716) = (   0.5965751   0.4228169   0.2879018  )
       717           C   tau( 717) = (   0.5596606   0.3058733   0.3163591  )
       718           C   tau( 718) = (   0.5764036   0.3094305   0.3043733  )
       719           C   tau( 719) = (   0.5856892   0.2901875   0.4300741  )
       720           C   tau( 720) = (   0.5997751   0.2821732   0.4167883  )
       721           C   tau( 721) = (   0.6195610   0.3969453   0.4710172  )
       722           C   tau( 722) = (   0.6349468   0.3829595   0.4683172  )
       723           C   tau( 723) = (   0.6131181   0.4728744   0.3833881  )
       724           C   tau( 724) = (   0.6326182   0.4678600   0.3891167  )
       725           C   tau( 725) = (   0.5688035   0.4466171   0.3081019  )
       726           C   tau( 726) = (   0.5892035   0.4503742   0.3103305  )
       727           C   tau( 727) = (   0.5424319   0.3334735   0.3004733  )
       728           C   tau( 728) = (   0.5601035   0.3388592   0.2907304  )
       729           C   tau( 729) = (   0.5592749   0.2837732   0.4071597  )
       730           C   tau( 730) = (   0.5735607   0.2792874   0.3924167  )
       731           C   tau( 731) = (   0.5963894   0.3699594   0.4776744  )
       732           C   tau( 732) = (   0.6109894   0.3561022   0.4719744  )
       733           C   tau( 733) = (   0.6020180   0.4684458   0.4175454  )
       734           C   tau( 734) = (   0.6206467   0.4603886   0.4224883  )
       735           C   tau( 735) = (   0.5880608   0.4766315   0.3572594  )
       736           C   tau( 736) = (   0.6080181   0.4737601   0.3631022  )
       737           C   tau( 737) = (   0.5507890   0.3916596   0.2842875  )
       738           C   tau( 738) = (   0.5706748   0.3980739   0.2821160  )
       739           C   tau( 739) = (   0.5455891   0.2925732   0.3469307  )
       740           C   tau( 740) = (   0.5613748   0.2936304   0.3332449  )
       741           C   tau( 741) = (   0.5787036   0.3145877   0.4559885  )
       742           C   tau( 742) = (   0.5924180   0.3034590   0.4448599  )
       743           C   tau( 743) = (   0.6078180   0.4323884   0.4696172  )
       744           C   tau( 744) = (   0.6225039   0.4169883   0.4655886  )
       745           C   tau( 745) = (   0.5788893   0.4801458   0.3923310  )
       746           C   tau( 746) = (   0.5982466   0.4746601   0.3979453  )
       747           C   tau( 747) = (   0.5421748   0.4246883   0.2970447  )
       748           C   tau( 748) = (   0.5623892   0.4299884   0.2971161  )
       749           C   tau( 749) = (   0.5253747   0.3132448   0.3252020  )
       750           C   tau( 750) = (   0.5421605   0.3169162   0.3132877  )
       751           C   tau( 751) = (   0.5515320   0.2977590   0.4389741  )
       752           C   tau( 752) = (   0.5648606   0.2845589   0.4281455  )
       753           C   tau( 753) = (   0.5854179   0.4043454   0.4800030  )
       754           C   tau( 754) = (   0.6007180   0.3904310   0.4771887  )
       755           C   tau( 755) = (   0.5885036   0.4563457   0.4488456  )
       756           C   tau( 756) = (   0.6063180   0.4458742   0.4526742  )
       757           C   tau( 757) = (   0.5617035   0.4708315   0.3341021  )
       758           C   tau( 758) = (   0.5825036   0.4764315   0.3362735  )
       759           C   tau( 759) = (   0.5280033   0.3654308   0.2914732  )
       760           C   tau( 760) = (   0.5451319   0.3712309   0.2795589  )
       761           C   tau( 761) = (   0.5342747   0.2878161   0.3809595  )
       762           C   tau( 762) = (   0.5492034   0.2859589   0.3664451  )
       763           C   tau( 763) = (   0.5711321   0.3441164   0.4755601  )
       764           C   tau( 764) = (   0.5851608   0.3312735   0.4668600  )
       765           C   tau( 765) = (   0.5716035   0.4370027   0.4739315  )
       766           C   tau( 766) = (   0.5883179   0.4243741   0.4745315  )
       767           C   tau( 767) = (   0.5538320   0.4840601   0.3666880  )
       768           C   tau( 768) = (   0.5737607   0.4809030   0.3720452  )
       769           C   tau( 769) = (   0.5166031   0.3995310   0.2934161  )
       770           C   tau( 770) = (   0.5364319   0.4055454   0.2908018  )
       771           C   tau( 771) = (   0.5112459   0.2998447   0.3557165  )
       772           C   tau( 772) = (   0.5270747   0.3010161   0.3421021  )
       773           C   tau( 773) = (   0.5445034   0.3220449   0.4650600  )
       774           C   tau( 774) = (   0.5582747   0.3109019   0.4538314  )
       775           C   tau( 775) = (   0.5621892   0.3773166   0.4868459  )
       776           C   tau( 776) = (   0.5767750   0.3635308   0.4809887  )
       777           C   tau( 777) = (   0.5679178   0.4763172   0.4266169  )
       778           C   tau( 778) = (   0.5864179   0.4677600   0.4314171  )
       779           C   tau( 779) = (   0.5345319   0.4541028   0.3167448  )
       780           C   tau( 780) = (   0.5550463   0.4577314   0.3191734  )
       781           C   tau( 781) = (   0.5081746   0.3408021   0.3093448  )
       782           C   tau( 782) = (   0.5260175   0.3463164   0.2998161  )
       783           C   tau( 783) = (   0.5248318   0.2915875   0.4155454  )
       784           C   tau( 784) = (   0.5393605   0.2869732   0.4012596  )
       785           C   tau( 785) = (   0.5369319   0.3514450   0.4848744  )
       786           C   tau( 786) = (   0.5509606   0.3386735   0.4760172  )
       787           C   tau( 787) = (   0.5542891   0.4644029   0.4578885  )
       788           C   tau( 788) = (   0.5718750   0.4535171   0.4611743  )
       789           C   tau( 789) = (   0.5271747   0.4773887   0.3433021  )
       790           C   tau( 790) = (   0.5476034   0.4785030   0.3475593  )
       791           C   tau( 791) = (   0.4936459   0.3727023   0.3008733  )
       792           C   tau( 792) = (   0.5123889   0.3791309   0.2942161  )
       793           C   tau( 793) = (   0.4997602   0.2947018   0.3896310  )
       794           C   tau( 794) = (   0.5148460   0.2931447   0.3752166  )
       795           C   tau( 795) = (   0.5172175   0.3060733   0.4477028  )
       796           C   tau( 796) = (   0.5310461   0.2974876   0.4345741  )
       797           C   tau( 797) = (   0.5511606   0.4116168   0.4895030  )
       798           C   tau( 798) = (   0.5665178   0.3977882   0.4863173  )
       799           C   tau( 799) = (   0.5448319   0.4884602   0.4014739  )
       800           C   tau( 800) = (   0.5641321   0.4825316   0.4069739  )
       801           C   tau( 801) = (   0.5077603   0.4326027   0.3051590  )
       802           C   tau( 802) = (   0.5280747   0.4376313   0.3055162  )
       803           C   tau( 803) = (   0.4909888   0.3204448   0.3339164  )
       804           C   tau( 804) = (   0.5078460   0.3242020   0.3220877  )
       805           C   tau( 805) = (   0.4905030   0.2991304   0.4243169  )
       806           C   tau( 806) = (   0.5048031   0.2939875   0.4099311  )
       807           C   tau( 807) = (   0.5280033   0.3846167   0.4963459  )
       808           C   tau( 808) = (   0.5425889   0.3708594   0.4903316  )
       809           C   tau( 809) = (   0.5337747   0.4844316   0.4357170  )
       810           C   tau( 810) = (   0.5523176   0.4759744   0.4405599  )
       811           C   tau( 811) = (   0.5000745   0.4618600   0.3250449  )
       812           C   tau( 812) = (   0.5205745   0.4652886   0.3275877  )
       813           C   tau( 813) = (   0.4736172   0.3478022   0.3178305  )
       814           C   tau( 814) = (   0.4914459   0.3533165   0.3083591  )
       815           C   tau( 815) = (   0.4768172   0.3070162   0.3644308  )
       816           C   tau( 816) = (   0.4927031   0.3082305   0.3508450  )
       817           C   tau( 817) = (   0.5102460   0.3293306   0.4745315  )
       818           C   tau( 818) = (   0.5240032   0.3183020   0.4632314  )
       819           C   tau( 819) = (   0.5372032   0.4442456   0.4825744  )
       820           C   tau( 820) = (   0.5536606   0.4313455   0.4830458  )
       821           C   tau( 821) = (   0.5195746   0.4914888   0.3757309  )
       822           C   tau( 822) = (   0.5396319   0.4890887   0.3812166  )
       823           C   tau( 823) = (   0.4823173   0.4070311   0.3023304  )
       824           C   tau( 824) = (   0.5020174   0.4133883   0.2991876  )
       825           C   tau( 825) = (   0.4565457   0.3276306   0.3426164  )
       826           C   tau( 826) = (   0.4733744   0.3312878   0.3307020  )
       827           C   tau( 827) = (   0.4829601   0.3137448   0.4565600  )
       828           C   tau( 828) = (   0.4967744   0.3052447   0.4433456  )
       829           C   tau( 829) = (   0.5168746   0.4189740   0.4986602  )
       830           C   tau( 830) = (   0.5323033   0.4051025   0.4959031  )
       831           C   tau( 831) = (   0.5106032   0.4962602   0.4105025  )
       832           C   tau( 832) = (   0.5300176   0.4907030   0.4161026  )
       833           C   tau( 833) = (   0.4733458   0.4402027   0.3137305  )
       834           C   tau( 834) = (   0.4936316   0.4454742   0.3137305  )
       835           C   tau( 835) = (   0.4593314   0.3800738   0.3097733  )
       836           C   tau( 836) = (   0.4781171   0.3865453   0.3032019  )
       837           C   tau( 837) = (   0.4653743   0.3020733   0.3984168  )
       838           C   tau( 838) = (   0.4803743   0.3002304   0.3839309  )
       839           C   tau( 839) = (   0.5027031   0.3587737   0.4942459  )
       840           C   tau( 840) = (   0.5167461   0.3459736   0.4854601  )
       841           C   tau( 841) = (   0.5199318   0.4718172   0.4667029  )
       842           C   tau( 842) = (   0.5375176   0.4609171   0.4699172  )
       843           C   tau( 843) = (   0.4928602   0.4845887   0.3523022  )
       844           C   tau( 844) = (   0.5133032   0.4855316   0.3566736  )
       845           C   tau( 845) = (   0.4480169   0.4144311   0.3113162  )
       846           C   tau( 846) = (   0.4676886   0.4208597   0.3080591  )
       847           C   tau( 847) = (   0.4424313   0.3143305   0.3732023  )
       848           C   tau( 848) = (   0.4582886   0.3154591   0.3595737  )
       849           C   tau( 849) = (   0.4759601   0.3368307   0.4835744  )
       850           C   tau( 850) = (   0.4897316   0.3258020   0.4723029  )
       851           C   tau( 851) = (   0.5028317   0.4515314   0.4913316  )
       852           C   tau( 852) = (   0.5193032   0.4386456   0.4918745  )
       853           C   tau( 853) = (   0.4852601   0.4987602   0.3847310  )
       854           C   tau( 854) = (   0.5053460   0.4965602   0.3902310  )
       855           C   tau( 855) = (   0.4657029   0.4693172   0.3338592  )
       856           C   tau( 856) = (   0.4862030   0.4727744   0.3363449  )
       857           C   tau( 857) = (   0.4392313   0.3551165   0.3266306  )
       858           C   tau( 858) = (   0.4570455   0.3605879   0.3170877  )
       859           C   tau( 859) = (   0.4562457   0.3068876   0.4331170  )
       860           C   tau( 860) = (   0.4704886   0.3015876   0.4187170  )
       861           C   tau( 861) = (   0.4937459   0.3919739   0.5056031  )
       862           C   tau( 862) = (   0.5083603   0.3781881   0.4997317  )
       863           C   tau( 863) = (   0.4994888   0.4920745   0.4447028  )
       864           C   tau( 864) = (   0.5180746   0.4837030   0.4495599  )
       865           C   tau( 865) = (   0.4585456   0.4918602   0.3612880  )
       866           C   tau( 866) = (   0.4789887   0.4927316   0.3656880  )
       867           C   tau( 867) = (   0.4250169   0.3874595   0.3187020  )
       868           C   tau( 868) = (   0.4438313   0.3939310   0.3121734  )
       869           C   tau( 869) = (   0.4310455   0.3096305   0.4072454  )
       870           C   tau( 870) = (   0.4460028   0.3076590   0.3927310  )
       871           C   tau( 871) = (   0.4684172   0.3661737   0.5034174  )
       872           C   tau( 872) = (   0.4824743   0.3533593   0.4946602  )
       873           C   tau( 873) = (   0.4855744   0.4791601   0.4755315  )
       874           C   tau( 874) = (   0.5031458   0.4682172   0.4786744  )
       875           C   tau( 875) = (   0.4763029   0.5037603   0.4194597  )
       876           C   tau( 876) = (   0.4957459   0.4983745   0.4250883  )
       877           C   tau( 877) = (   0.4389884   0.4476171   0.3226020  )
       878           C   tau( 878) = (   0.4592457   0.4529742   0.3224734  )
       879           C   tau( 879) = (   0.4221455   0.3349306   0.3513879  )
       880           C   tau( 880) = (   0.4389599   0.3385450   0.3394450  )
       881           C   tau( 881) = (   0.4486885   0.3214448   0.4654030  )
       882           C   tau( 882) = (   0.4625172   0.3130019   0.4521457  )
       883           C   tau( 883) = (   0.4825601   0.4263598   0.5076317  )
       884           C   tau( 884) = (   0.4980174   0.4124740   0.5050174  )
       885           C   tau( 885) = (   0.4651600   0.4995317   0.4536457  )
       886           C   tau( 886) = (   0.4837459   0.4911745   0.4584887  )
       887           C   tau( 887) = (   0.4313598   0.4766887   0.3428021  )
       888           C   tau( 888) = (   0.4518599   0.4801315   0.3452736  )
       889           C   tau( 889) = (   0.4048597   0.3624737   0.3354449  )
       890           C   tau( 890) = (   0.4227026   0.3679451   0.3259449  )
       891           C   tau( 891) = (   0.4219740   0.3145734   0.4419456  )
       892           C   tau( 892) = (   0.4362027   0.3092876   0.4275455  )
       893           C   tau( 893) = (   0.4594457   0.3993882   0.5147175  )
       894           C   tau( 894) = (   0.4740744   0.3855738   0.5089317  )
       895           C   tau( 895) = (   0.4685172   0.4588886   0.5001888  )
       896           C   tau( 896) = (   0.4849744   0.4459742   0.5007174  )
       897           C   tau( 897) = (   0.4509456   0.5061031   0.3937024  )
       898           C   tau( 898) = (   0.4710315   0.5039174   0.3991882  )
       899           C   tau( 899) = (   0.4137026   0.4218169   0.3202448  )
       900           C   tau( 900) = (   0.4333598   0.4282455   0.3170020  )
       901           C   tau( 901) = (   0.4080597   0.3217448   0.3820167  )
       902           C   tau( 902) = (   0.4238883   0.3227877   0.3683594  )
       903           C   tau( 903) = (   0.4416456   0.3443450   0.4925459  )
       904           C   tau( 904) = (   0.4554314   0.3333735   0.4812316  )
       905           C   tau( 905) = (   0.4482599   0.4337741   0.5166318  )
       906           C   tau( 906) = (   0.4637029   0.4198883   0.5140603  )
       907           C   tau( 907) = (   0.4419599   0.5111889   0.4284027  )
       908           C   tau( 908) = (   0.4614171   0.5058603   0.4340455  )
       909           C   tau( 909) = (   0.4046454   0.4549885   0.3315449  )
       910           C   tau( 910) = (   0.4248883   0.4603600   0.3313878  )
       911           C   tau( 911) = (   0.3877595   0.3423021   0.3601737  )
       912           C   tau( 912) = (   0.4045739   0.3458879   0.3482307  )
       913           C   tau( 913) = (   0.4144169   0.3290306   0.4742744  )
       914           C   tau( 914) = (   0.4282455   0.3206734   0.4609743  )
       915           C   tau( 915) = (   0.4341027   0.3736309   0.5124746  )
       916           C   tau( 916) = (   0.4481742   0.3608165   0.5037317  )
       917           C   tau( 917) = (   0.4512599   0.4865459   0.4844459  )
       918           C   tau( 918) = (   0.4688029   0.4755601   0.4875316  )
       919           C   tau( 919) = (   0.4242312   0.4992031   0.3702452  )
       920           C   tau( 920) = (   0.4446742   0.5000317   0.3746595  )
       921           C   tau( 921) = (   0.3906881   0.3948310   0.3275449  )
       922           C   tau( 922) = (   0.4095168   0.4013168   0.3210877  )
       923           C   tau( 923) = (   0.3967310   0.3172020   0.4161169  )
       924           C   tau( 924) = (   0.4116597   0.3151734   0.4015739  )
       925           C   tau( 925) = (   0.4073311   0.3518450   0.5014745  )
       926           C   tau( 926) = (   0.4211312   0.3409164   0.4901459  )
       927           C   tau( 927) = (   0.4342313   0.4663029   0.5091604  )
       928           C   tau( 928) = (   0.4506742   0.4533742   0.5096603  )
       929           C   tau( 929) = (   0.4166312   0.5134889   0.4026311  )
       930           C   tau( 930) = (   0.4367027   0.5113032   0.4081311  )
       931           C   tau( 931) = (   0.3793595   0.4291884   0.3291306  )
       932           C   tau( 932) = (   0.3990310   0.4356170   0.3259163  )
       933           C   tau( 933) = (   0.3737023   0.3292449   0.3908881  )
       934           C   tau( 934) = (   0.3895167   0.3302020   0.3771881  )
       935           C   tau( 935) = (   0.3876881   0.3221591   0.4508171  )
       936           C   tau( 936) = (   0.4019311   0.3169162   0.4364027  )
       937           C   tau( 937) = (   0.4251312   0.4068454   0.5237604  )
       938           C   tau( 938) = (   0.4397740   0.3930024   0.5180175  )
       939           C   tau( 939) = (   0.4308170   0.5069317   0.4625886  )
       940           C   tau( 940) = (   0.4494171   0.4985888   0.4674173  )
       941           C   tau( 941) = (   0.3970167   0.4840459   0.3517736  )
       942           C   tau( 942) = (   0.4175312   0.4874744   0.3542308  )
       943           C   tau( 943) = (   0.3704880   0.3698309   0.3442021  )
       944           C   tau( 944) = (   0.3883453   0.3753166   0.3347449  )
       945           C   tau( 945) = (   0.3624308   0.3247877   0.4250171  )
       946           C   tau( 946) = (   0.3773452   0.3227306   0.4104597  )
       947           C   tau( 947) = (   0.3997453   0.3811166   0.5214032  )
       948           C   tau( 948) = (   0.4138454   0.3682880   0.5127032  )
       949           C   tau( 949) = (   0.4169454   0.4939459   0.4934173  )
       950           C   tau( 950) = (   0.4345027   0.4829601   0.4964745  )
       951           C   tau( 951) = (   0.3899024   0.5065889   0.3791738  )
       952           C   tau( 952) = (   0.4103597   0.5074174   0.3836024  )
       953           C   tau( 953) = (   0.3563308   0.4021882   0.3362878  )
       954           C   tau( 954) = (   0.3751738   0.4086882   0.3299020  )
       955           C   tau( 955) = (   0.3534022   0.3497450   0.3690023  )
       956           C   tau( 956) = (   0.3702023   0.3532736   0.3570165  )
       957           C   tau( 957) = (   0.3801166   0.3365164   0.4831887  )
[...]
      1285           C   tau(1285) = (   0.1409580   0.5661035   0.5484891  )
      1286           C   tau(1286) = (   0.0883005   0.5523891   0.4291169  )
      1287           C   tau(1287) = (   0.1085721   0.5543463   0.4341027  )
      1288           C   tau(1288) = (   0.0606861   0.4344741   0.4212169  )
      1289           C   tau(1289) = (   0.0788576   0.4416170   0.4135311  )
      1290           C   tau(1290) = (   0.0788862   0.3872453   0.5316176  )
      1291           C   tau(1291) = (   0.0929291   0.3840309   0.5163746  )
      1292           C   tau(1292) = (   0.1177579   0.4738172   0.6078323  )
      1293           C   tau(1293) = (   0.1312865   0.4599743   0.5997180  )
      1294           C   tau(1294) = (   0.1269294   0.5351319   0.5923322  )
      1295           C   tau(1295) = (   0.1422295   0.5208032   0.5913751  )
      1296           C   tau(1296) = (   0.1083578   0.5823179   0.4821173  )
      1297           C   tau(1297) = (   0.1278579   0.5782464   0.4886459  )
      1298           C   tau(1298) = (   0.0699290   0.4958174   0.4057454  )
      1299           C   tau(1299) = (   0.0898291   0.5024317   0.4050025  )
      1300           C   tau(1300) = (   0.0643004   0.3928453   0.4696172  )
      1301           C   tau(1301) = (   0.0802576   0.3963596   0.4564743  )
      1302           C   tau(1302) = (   0.0993435   0.4172454   0.5843893  )
      1303           C   tau(1303) = (   0.1123578   0.4079882   0.5708035  )
      1304           C   tau(1304) = (   0.1220008   0.4943031   0.6072038  )
      1305           C   tau(1305) = (   0.1197007   0.5829893   0.5243461  )
      1306           C   tau(1306) = (   0.0818148   0.5362033   0.4175454  )
      1307           C   tau(1307) = (   0.0604575   0.4179169   0.4340170  )
      1308           C   tau(1308) = (   0.0851434   0.3933453   0.5506320  )
      1309           C   tau(1309) = (   0.1059007   0.4334741   0.5958751  )
      1310           C   tau(1310) = (   0.1272294   0.5517177   0.5795750  )
      1311           C   tau(1311) = (   0.1020863   0.5762036   0.4631029  )
      1312           C   tau(1312) = (   0.0656575   0.4753315   0.4064454  )
      1313           C   tau(1313) = (   0.0680004   0.3866453   0.4892602  )
      1314           C   tau(1314) = (   0.3181448   0.3629737   0.5171032  )
      1315           H   tau(1315) = (   0.1130007   0.5802036   0.5551749  )
      1316           H   tau(1316) = (   0.0777148   0.5628749   0.4341313  )
      1317           H   tau(1317) = (   0.0471146   0.4415742   0.4177026  )
      1318           H   tau(1318) = (   0.0635147   0.3854310   0.5289176  )
      1319           H   tau(1319) = (   0.1042006   0.4690600   0.6141895  )
      1320           H   tau(1320) = (   0.1149436   0.5334604   0.6023609  )
      1321           H   tau(1321) = (   0.0981006   0.5897037   0.4914602  )
      1322           H   tau(1322) = (   0.0580289   0.5060746   0.4061168  )
      1323           H   tau(1323) = (   0.0494289   0.3950167   0.4650172  )
      1324           H   tau(1324) = (   0.0845005   0.4123026   0.5860036  )
      1325           H   tau(1325) = (   0.1115293   0.5044317   0.6131038  )
      1326           H   tau(1326) = (   0.1064721   0.5909037   0.5212891  )
      1327           H   tau(1327) = (   0.0665147   0.5348890   0.4142026  )
      1328           H   tau(1328) = (   0.0467003   0.4130026   0.4398170  )
      1329           H   tau(1329) = (   0.0743005   0.3959739   0.5617035  )
      1330           H   tau(1330) = (   0.0958149   0.4403456   0.6057752  )
      1331           H   tau(1331) = (   0.1154579   0.5621035   0.5803322  )
      1332           H   tau(1332) = (   0.0872863   0.5791607   0.4587028  )
      1333           H   tau(1333) = (   0.0506575   0.4707172   0.4073168  )
      1334           H   tau(1334) = (   0.0558146   0.3842595   0.4989031  )
      1335           H   tau(1335) = (   0.7609333   0.2647016   0.4103025  )
      1336           H   tau(1336) = (   0.7913192   0.3862310   0.4247312  )
      1337           H   tau(1337) = (   0.7752191   0.4451599   0.3148305  )
      1338           H   tau(1338) = (   0.7352760   0.3599594   0.2314157  )
      1339           H   tau(1339) = (   0.7260188   0.2482587   0.2899018  )
      1340           H   tau(1340) = (   0.7403474   0.2368300   0.3535879  )
      1341           H   tau(1341) = (   0.7804048   0.3221020   0.4372884  )
      1342           H   tau(1342) = (   0.7893477   0.4341455   0.3786309  )
      1343           H   tau(1343) = (   0.7543904   0.4174740   0.2581302  )
      1344           H   tau(1344) = (   0.7243331   0.2955590   0.2433301  )
      1345           H   tau(1345) = (   0.7323045   0.2367015   0.3235591  )
      1346           H   tau(1346) = (   0.7720619   0.2932447   0.4294598  )
      1347           H   tau(1347) = (   0.7919049   0.4151169   0.4030739  )
      1348           H   tau(1348) = (   0.7644190   0.4346027   0.2820303  )
      1349           H   tau(1349) = (   0.7280617   0.3246020   0.2330157  )
      1350           H   tau(1350) = (   0.7236759   0.2667445   0.2650731  )
      1351           H   tau(1351) = (   0.7511618   0.2473872   0.3864024  )
      1352           H   tau(1352) = (   0.7877477   0.3574308   0.4357884  )
      1353           H   tau(1353) = (   0.7829620   0.4454599   0.3449021  )
      1354           H   tau(1354) = (   0.7432475   0.3890738   0.2387729  )
      1355           C   tau(1355) = (   0.5185889   0.3532022   0.2365015  )
      1356           C   tau(1356) = (   0.4989745   0.3462593   0.2342729  )
      1357           C   tau(1357) = (   0.4924172   0.3385878   0.2159728  )
      1358           C   tau(1358) = (   0.5052031   0.3384450   0.1993869  )
      1359           C   tau(1359) = (   0.5249033   0.3452450   0.2016441  )
      1360           C   tau(1360) = (   0.5318462   0.3515593   0.2203299  )
      1361           O   tau(1361) = (   0.5239032   0.3593594   0.2540730  )
      1362           C   tau(1362) = (   0.4984602   0.3312163   0.1808440  )
      1363           C   tau(1363) = (   0.4795887   0.3366735   0.1737011  )
      1364           C   tau(1364) = (   0.5103602   0.3181591   0.1697011  )
      1365           C   tau(1365) = (   0.4683743   0.3531736   0.1800725  )
      1366           C   tau(1366) = (   0.4498885   0.3519022   0.1705725  )
      1367           C   tau(1367) = (   0.4504599   0.3347449   0.1585867  )
      1368           N   tau(1368) = (   0.4686315   0.3258877   0.1604439  )
      1369           C   tau(1369) = (   0.5264890   0.3069162   0.1769440  )
      1370           C   tau(1370) = (   0.5356890   0.2981447   0.1603867  )
      1371           C   tau(1371) = (   0.5248604   0.3041733   0.1435009  )
      1372           N   tau(1372) = (   0.5092603   0.3155305   0.1496581  )
      1373           C   tau(1373) = (   0.5302176   0.3006733   0.1236293  )
      1374           C   tau(1374) = (   0.5501034   0.2959447   0.1188579  )
      1375           C   tau(1375) = (   0.5658321   0.3075305   0.1264151  )
      1376           C   tau(1376) = (   0.5856465   0.3028162   0.1216865  )
      1377           C   tau(1377) = (   0.5899608   0.2865875   0.1091578  )
      1378           C   tau(1378) = (   0.5742321   0.2749588   0.1016435  )
      1379           C   tau(1379) = (   0.5544320   0.2795446   0.1065435  )
      1380           C   tau(1380) = (   0.6103038   0.2819160   0.1039721  )
      1381           C   tau(1381) = (   0.5158175   0.3018304   0.1085292  )
      1382           C   tau(1382) = (   0.5197461   0.3039019   0.0880577  )
      1383           C   tau(1383) = (   0.5013745   0.3030590   0.0783148  )
      1384           C   tau(1384) = (   0.4867887   0.3004876   0.0931291  )
      1385           N   tau(1385) = (   0.4957888   0.3000590   0.1113293  )
      1386           C   tau(1386) = (   0.4663743   0.2976447   0.0897148  )
      1387           C   tau(1387) = (   0.4596598   0.2915304   0.0707862  )
      1388           C   tau(1388) = (   0.4686315   0.2752446   0.0611290  )
      1389           C   tau(1389) = (   0.4619886   0.2692017   0.0422431  )
      1390           C   tau(1390) = (   0.4460885   0.2791874   0.0329288  )
      1391           C   tau(1391) = (   0.4371027   0.2954447   0.0426145  )
      1392           C   tau(1392) = (   0.4438885   0.3016304   0.0614004  )
      1393           C   tau(1393) = (   0.4390170   0.2727874   0.0136572  )
      1394           C   tau(1394) = (   0.4526028   0.3006447   0.1051435  )
      1395           N   tau(1395) = (   0.4553885   0.3125305   0.1213008  )
      1396           C   tau(1396) = (   0.4329884   0.2932875   0.1056721  )
      1397           C   tau(1397) = (   0.4237883   0.3017733   0.1223579  )
      1398           C   tau(1398) = (   0.4379884   0.3141305   0.1315437  )
      1399           C   tau(1399) = (   0.4344597   0.3271449   0.1475009  )
      1400           H   tau(1400) = (   0.4891173   0.3466593   0.2465587  )
      1401           H   tau(1401) = (   0.4778744   0.3326449   0.2148156  )
      1402           H   tau(1402) = (   0.5346319   0.3455164   0.1892583  )
      1403           H   tau(1403) = (   0.5471891   0.3544165   0.2222157  )
      1404           H   tau(1404) = (   0.4730315   0.3645165   0.1899297  )
      1405           H   tau(1405) = (   0.4379313   0.3620308   0.1720011  )
      1406           H   tau(1406) = (   0.5309176   0.3053590   0.1919583  )
      1407           H   tau(1407) = (   0.5484034   0.2888875   0.1606153  )
      1408           H   tau(1408) = (   0.5627749   0.3200591   0.1354580  )
      1409           H   tau(1409) = (   0.5973608   0.3115591   0.1275579  )
      1410           H   tau(1410) = (   0.5773177   0.2626016   0.0923863  )
      1411           H   tau(1411) = (   0.5427748   0.2704017   0.1011863  )
      1412           H   tau(1412) = (   0.6159181   0.2707017   0.1137578  )
      1413           H   tau(1413) = (   0.6113038   0.2765446   0.0890291  )
      1414           H   tau(1414) = (   0.6197038   0.2947018   0.1050578  )
      1415           H   tau(1415) = (   0.5338033   0.3060448   0.0813148  )
      1416           H   tau(1416) = (   0.4989459   0.3044162   0.0628290  )
      1417           H   tau(1417) = (   0.4802458   0.2672874   0.0682004  )
      1418           H   tau(1418) = (   0.4689458   0.2570444   0.0350574  )
      1419           H   tau(1419) = (   0.4252741   0.3031733   0.0356574  )
      1420           H   tau(1420) = (   0.4372741   0.3141305   0.0683290  )
      1421           H   tau(1421) = (   0.4462885   0.2811017   0.0022143  )
      1422           H   tau(1422) = (   0.4418885   0.2573302   0.0112429  )
      1423           H   tau(1423) = (   0.4233169   0.2749731   0.0122858  )
      1424           H   tau(1424) = (   0.4263741   0.2833446   0.0954292  )
      1425           H   tau(1425) = (   0.4089597   0.2993447   0.1270579  )
      1426           C   tau(1426) = (   0.4147883   0.3322878   0.1527295  )
      1427           C   tau(1427) = (   0.4012882   0.3388592   0.1381151  )
      1428           C   tau(1428) = (   0.3815738   0.3435307   0.1433009  )
      1429           C   tau(1429) = (   0.3752166   0.3419878   0.1632010  )
      1430           C   tau(1430) = (   0.3887881   0.3356735   0.1778582  )
      1431           C   tau(1431) = (   0.4084454   0.3308163   0.1726439  )
      1432           C   tau(1432) = (   0.3549736   0.3468164   0.1686296  )
      1433           H   tau(1433) = (   0.4060025   0.3405307   0.1231865  )
      1434           H   tau(1434) = (   0.3714880   0.3482164   0.1321580  )
      1435           H   tau(1435) = (   0.3841452   0.3343735   0.1928441  )
      1436           H   tau(1436) = (   0.4183740   0.3256592   0.1837297  )
      1437           H   tau(1437) = (   0.3482593   0.3566879   0.1581153  )
      1438           H   tau(1438) = (   0.3544165   0.3539165   0.1828583  )
      1439           H   tau(1439) = (   0.3462736   0.3335164   0.1692725  )
      1440           H   tau(1440) = (   0.5017460   0.3242734   0.1408152  )
      1441           H   tau(1441) = (   0.4663315   0.3220163   0.1225008  )
      1442           C   tau(1442) = (   0.5392748   0.3701594   0.2587873  )
      1443           O   tau(1443) = (   0.5493748   0.3805024   0.2451301  )
      1444           C   tau(1444) = (   0.2001584   0.3987596   0.3255163  )
      1445           C   tau(1445) = (   0.1852154   0.3841595   0.3241306  )
      1446           C   tau(1446) = (   0.1816440   0.3743595   0.3060162  )
      1447           C   tau(1447) = (   0.1931155   0.3789309   0.2891018  )
      1448           C   tau(1448) = (   0.2085727   0.3929881   0.2906732  )
      1449           C   tau(1449) = (   0.2124013   0.4024882   0.3089162  )
      1450           O   tau(1450) = (   0.2030155   0.4072311   0.3426736  )
      1451           C   tau(1451) = (   0.1891440   0.3694166   0.2708160  )
      1452           C   tau(1452) = (   0.1695296   0.3687309   0.2636159  )
      1453           C   tau(1453) = (   0.2046298   0.3603165   0.2601445  )
      1454           C   tau(1454) = (   0.1539867   0.3814309   0.2695731  )
      1455           C   tau(1455) = (   0.1367294   0.3746452   0.2601159  )
      1456           C   tau(1456) = (   0.1422723   0.3579736   0.2487158  )
      1457           N   tau(1457) = (   0.1622296   0.3547879   0.2507873  )
      1458           C   tau(1458) = (   0.2236442   0.3557022   0.2676588  )
      1459           C   tau(1459) = (   0.2350872   0.3490450   0.2515444  )
      1460           C   tau(1460) = (   0.2227585   0.3497165   0.2346157  )
      1461           N   tau(1461) = (   0.2043441   0.3558451   0.2404015  )
      1462           C   tau(1462) = (   0.2288586   0.3462879   0.2149299  )
      1463           C   tau(1463) = (   0.2492444   0.3472164   0.2100013  )
      1464           C   tau(1464) = (   0.2607588   0.3637594   0.2157156  )
      1465           C   tau(1465) = (   0.2809732   0.3648737   0.2104442  )
      1466           C   tau(1466) = (   0.2898589   0.3495165   0.1992869  )
      1467           C   tau(1467) = (   0.2783732   0.3329163   0.1937298  )
      1468           C   tau(1468) = (   0.2582159   0.3317021   0.1991584  )
      1469           C   tau(1469) = (   0.3105162   0.3506736   0.1934441  )
      1470           C   tau(1470) = (   0.2147870   0.3417735   0.2001441  )
      1471           C   tau(1471) = (   0.2180585   0.3430164   0.1795011  )
      1472           C   tau(1472) = (   0.2008727   0.3357735   0.1702439  )
      1473           C   tau(1473) = (   0.1876440   0.3303449   0.1855297  )
      1474           N   tau(1474) = (   0.1962012   0.3343306   0.2035155  )
      1475           C   tau(1475) = (   0.1690010   0.3213163   0.1827726  )
      1476           C   tau(1476) = (   0.1645724   0.3118162   0.1645867  )
      1477           C   tau(1477) = (   0.1779297   0.2978876   0.1564153  )
      1478           C   tau(1478) = (   0.1734868   0.2883732   0.1383294  )
      1479           C   tau(1479) = (   0.1555438   0.2924875   0.1283151  )
      1480           C   tau(1480) = (   0.1422437   0.3064733   0.1364580  )
      1481           C   tau(1481) = (   0.1467581   0.3161448   0.1544438  )
      1482           C   tau(1482) = (   0.1508152   0.2824160   0.1099293  )
      1483           C   tau(1483) = (   0.1547581   0.3216306   0.1980584  )
      1484           N   tau(1484) = (   0.1539438   0.3351164   0.2131299  )
      1485           C   tau(1485) = (   0.1378294   0.3093448   0.1992869  )
      1486           C   tau(1486) = (   0.1263294   0.3164305   0.2151585  )
      1487           C   tau(1487) = (   0.1365437   0.3328449   0.2232300  )
      1488           C   tau(1488) = (   0.1291865   0.3458021   0.2378729  )
      1489           H   tau(1489) = (   0.1765154   0.3806595   0.3367735  )
      1490           H   tau(1490) = (   0.1704296   0.3633308   0.3052305  )
      1491           H   tau(1491) = (   0.2173013   0.3965596   0.2780589  )
      1492           H   tau(1492) = (   0.2248871   0.4119740   0.3102019  )
      1493           H   tau(1493) = (   0.1551010   0.3938596   0.2791732  )
      1494           H   tau(1494) = (   0.1223865   0.3810166   0.2611730  )
      1495           H   tau(1495) = (   0.2284586   0.3570308   0.2825875  )
      1496           H   tau(1496) = (   0.2501301   0.3444736   0.2520587  )
      1497           H   tau(1497) = (   0.2541301   0.3756309   0.2236585  )
      1498           H   tau(1498) = (   0.2894589   0.3774166   0.2147585  )
      1499           H   tau(1499) = (   0.2849303   0.3212591   0.1854154  )
      1500           H   tau(1500) = (   0.2498587   0.3189448   0.1952441  )
      1501           H   tau(1501) = (   0.3182305   0.3374592   0.1977584  )
      1502           H   tau(1502) = (   0.3115734   0.3522450   0.1776440  )
      1503           H   tau(1503) = (   0.3179734   0.3630308   0.2001298  )
      1504           H   tau(1504) = (   0.2308729   0.3486307   0.1722868  )
      1505           H   tau(1505) = (   0.1982869   0.3348592   0.1547581  )
      1506           H   tau(1506) = (   0.1912298   0.2942875   0.1640296  )
      1507           H   tau(1507) = (   0.1836869   0.2780160   0.1322580  )
      1508           H   tau(1508) = (   0.1288151   0.3098591   0.1289579  )
      1509           H   tau(1509) = (   0.1368294   0.3269306   0.1601867  )
      1510           H   tau(1510) = (   0.1564295   0.2907732   0.0976006  )
      1511           H   tau(1511) = (   0.1572295   0.2678588   0.1094864  )
      1512           H   tau(1512) = (   0.1351008   0.2807446   0.1081292  )
      1513           H   tau(1513) = (   0.1343151   0.2971876   0.1899297  )
      1514           H   tau(1514) = (   0.1125293   0.3106305   0.2200014  )
      1515           C   tau(1515) = (   0.1085864   0.3464307   0.2418158  )
      1516           C   tau(1516) = (   0.0949006   0.3487164   0.2261014  )
      1517           C   tau(1517) = (   0.0743576   0.3491736   0.2299871  )
      1518           C   tau(1518) = (   0.0672576   0.3474879   0.2496158  )
      1519           C   tau(1519) = (   0.0809576   0.3453736   0.2653445  )
      1520           C   tau(1520) = (   0.1014863   0.3447021   0.2614445  )
      1521           C   tau(1521) = (   0.0461289   0.3478307   0.2535873  )
      1522           H   tau(1522) = (   0.1000720   0.3504022   0.2113156  )
      1523           H   tau(1523) = (   0.0642147   0.3509593   0.2180728  )
      1524           H   tau(1524) = (   0.0757862   0.3442307   0.2801732  )
      1525           H   tau(1525) = (   0.1116007   0.3425878   0.2733445  )
      1526           H   tau(1526) = (   0.0378859   0.3416021   0.2414872  )
      1527           H   tau(1527) = (   0.0413003   0.3628308   0.2557587  )
      1528           H   tau(1528) = (   0.0425288   0.3394450   0.2666017  )
      1529           H   tau(1529) = (   0.1942583   0.3608022   0.2311871  )
      1530           H   tau(1530) = (   0.1618296   0.3473307   0.2134013  )
      1531           C   tau(1531) = (   0.2106870   0.4247741   0.3456021  )
      1532           O   tau(1532) = (   0.2106156   0.4385027   0.3311735  )

     number of k points=     1
                       cart. coord. in units 2pi/alat
        k(    1) = (   0.0000000   0.0000000   0.0000000), wk =   2.0000000

     Dense  grid: 27637241 G-vectors     FFT dimensions: ( 540, 540, 540)

     Smooth grid:  9771712 G-vectors     FFT dimensions: ( 375, 375, 375)

     Estimated max dynamical RAM per process >      46.95 GB

     Estimated total dynamical RAM >     751.21 GB

     Initial potential from superposition of free atoms

     starting charge 5231.94959, renormalised to 5232.00000

     negative rho (up, down):  6.436E-01 0.000E+00
