 DBCSR| CPU Multiplication driver                                           BLAS
 DBCSR| Multrec recursion limit                                              512
 DBCSR| Multiplication stack size                                           1000
 DBCSR| Maximum elements for images                                    UNLIMITED
 DBCSR| Multiplicative factor virtual images                                   1
 DBCSR| Use multiplication densification                                       T
 DBCSR| Multiplication size stacks                                             3
 DBCSR| Use memory pool for CPU allocation                                     F
 DBCSR| Number of 3D layers                                               SINGLE
 DBCSR| Use MPI memory allocation                                              F
 DBCSR| Use RMA algorithm                                                      F
 DBCSR| Use Communication thread                                               T
 DBCSR| Communication thread load                                             75
 DBCSR| MPI: My node id                                                        0
 DBCSR| MPI: Number of nodes                                                 128
 DBCSR| OMP: Current number of threads                                         4
 DBCSR| OMP: Max number of threads                                             4
 DBCSR| Split modifier for TAS multiplication algorithm                  1.0E+00


  **** **** ******  **  PROGRAM STARTED AT               2022-01-17 16:59:09.718
 ***** ** ***  *** **   PROGRAM STARTED ON                             nid002938
 **    ****   ******    PROGRAM STARTED BY                                hjudge
 ***** **    ** ** **   PROGRAM PROCESS ID                                178171
  **** **  *******  **  PROGRAM STARTED IN /mnt/lustre/a2fs-work2/work/z19/z19/h
                                           judge/CUG/archer2/CPU/CP2K/H2O-512/4N
                                           ODES/128CPN/4THREADS

 CP2K| version string:                                          CP2K version 8.2
 CP2K| source code revision number:                                  git:310b7ab
 CP2K| cp2kflags: omp libint fftw3 libxc elpa parallel mpi3 scalapack plumed2   
 CP2K| is freely available from                            https://www.cp2k.org/
 CP2K| Program compiled at                          Thu Dec  2 10:30:45 GMT 2021
 CP2K| Program compiled on                                                  ln02
 CP2K| Program compiled for                                              ARCHER2
 CP2K| Data directory path         /work/y07/shared/apps/core/cp2k/cp2k-8.2/data
 CP2K| Input file name                                               H2O-512.inp

 GLOBAL| Force Environment number                                              1
 GLOBAL| Basis set file name                                      GTH_BASIS_SETS
 GLOBAL| Potential file name                                           POTENTIAL
 GLOBAL| MM Potential file name                                     MM_POTENTIAL
 GLOBAL| Coordinate file name                                      __STD_INPUT__
 GLOBAL| Method name                                                        CP2K
 GLOBAL| Project name                                                    H2O-512
 GLOBAL| Run type                                                             MD
 GLOBAL| FFT library                                                       FFTW3
 GLOBAL| Diagonalization library                                            ELPA
 GLOBAL| Minimum number of eigenvectors for ELPA usage                        16
 GLOBAL| Orthonormality check for eigenvectors                          DISABLED
 GLOBAL| Matrix multiplication library                                    SCALAP
 GLOBAL| All-to-all communication in single precision                          F
 GLOBAL| FFTs using library dependent lengths                                  F
 GLOBAL| Grid backend                                                       AUTO
 GLOBAL| Global print level                                                  LOW
 GLOBAL| MPI I/O enabled                                                       T
 GLOBAL| Total number of message passing processes                           128
 GLOBAL| Number of threads for this process                                    4
 GLOBAL| This output is from process                                           0
 GLOBAL| CPU model name                          AMD EPYC 7742 64-Core Processor
 GLOBAL| CPUID                                                              1002

 MEMORY| system memory details [Kb]
 MEMORY|                        rank 0           min           max       average
 MEMORY| MemTotal            527769212     527769212     527769216     527769214
 MEMORY| MemFree             513964856     513724228     514240336     513940839
 MEMORY| Buffers                 24140         20372         25028         22614
 MEMORY| Cached                 855088        855088       1379196       1098462
 MEMORY| Slab                  1630080       1568504       1630080       1587652
 MEMORY| SReclaimable           114736         95292        114736        100553
 MEMORY| MemLikelyFree       514958820     514958820     515330120     515162468


 GENERATE|  Preliminary Number of Bonds generated:                             0
 GENERATE|  Achieved consistency in connectivity generation.

 *******************************************************************************
 *******************************************************************************
 **                                                                           **
 **     #####                         ##              ##                      **
 **    ##   ##            ##          ##              ##                      **
 **   ##     ##                       ##            ######                    **
 **   ##     ##  ##   ##  ##   #####  ##  ##   ####   ##    #####    #####    **
 **   ##     ##  ##   ##  ##  ##      ## ##   ##      ##   ##   ##  ##   ##   **
 **   ##  ## ##  ##   ##  ##  ##      ####     ###    ##   ######   ######    **
 **    ##  ###   ##   ##  ##  ##      ## ##      ##   ##   ##       ##        **
 **     #######   #####   ##   #####  ##  ##  ####    ##    #####   ##        **
 **           ##                                                    ##        **
 **                                                                           **
 **                                                ... make the atoms dance   **
 **                                                                           **
 **            Copyright (C) by CP2K developers group (2000-2021)             **
 **                      J. Chem. Phys. 152, 194103 (2020)                    **
 **                                                                           **
 *******************************************************************************


 TOTAL NUMBERS AND MAXIMUM NUMBERS

  Total number of            - Atomic kinds:                                   2
                             - Atoms:                                       1536
                             - Shell sets:                                  3072
                             - Shells:                                      9216
                             - Primitive Cartesian functions:              10752
                             - Cartesian basis functions:                  21504
                             - Spherical basis functions:                  20480

  Maximum angular momentum of- Orbital basis functions:                        2
                             - Local part of the GTH pseudopotential:          2
                             - Non-local part of the GTH pseudopotential:      0


 SCF PARAMETERS         Density guess:                                    ATOMIC
                        --------------------------------------------------------
                        max_scf:                                              50
                        max_scf_history:                                       0
                        max_diis:                                              4
                        --------------------------------------------------------
                        eps_scf:                                        1.00E-05
                        eps_scf_history:                                0.00E+00
                        eps_diis:                                       1.00E-01
                        eps_eigval:                                     1.00E-05
                        --------------------------------------------------------
                        level_shift [a.u.]:                                 0.00
                        --------------------------------------------------------
                        No outer SCF

 MD_PAR| Molecular dynamics protocol (MD input parameters)
 MD_PAR| Ensemble type                                                       NVE
 MD_PAR| Number of time steps                                                 10
 MD_PAR| Time step [fs]                                                 0.500000
 MD_PAR| Temperature [K]                                              300.000000
 MD_PAR| Temperature tolerance [K]                                      0.000000
 MD_PAR| Print MD information every                                    1 step(s)
 MD_PAR| File type   Print frequency [steps]                          File names
 MD_PAR| Coordinates          1                                H2O-512-pos-1.xyz
 MD_PAR| Velocities           1                                H2O-512-vel-1.xyz
 MD_PAR| Energies             1                                   H2O-512-1.ener
 MD_PAR| Dump                20                                H2O-512-1.restart

 ROT| Rotational analysis information
 ROT| Principal axes and moments of inertia [a.u.]
 ROT|                           1                   2                   3
 ROT| Eigenvalues      6.12011925703E+09   6.17734003456E+09   6.32378668800E+09
 ROT|      x              0.229702356692      0.883899672739      0.407379670409
 ROT|      y              0.711719446246      0.132949289019     -0.689768016354
 ROT|      z              0.663846561462     -0.448381372362      0.598549820611
 ROT| Number of rotovibrational vectors                                        6

 DOF| Calculation of degrees of freedom
 DOF| Number of atoms                                                       1536
 DOF| Number of intramolecular constraints                                     0
 DOF| Number of intermolecular constraints                                     0
 DOF| Invariants (translations + rotations)                                    3
 DOF| Degrees of freedom                                                    4605

 DOF| Restraints information
 DOF| Number of intramolecular restraints                                      0
 DOF| Number of intermolecular restraints                                      0

 MD_VEL| Velocities initialization
 MD_VEL| Initial temperature [K]                                      300.000000
 MD_VEL| COM velocity             0.0000000000    -0.0000000000     0.0000000000

 Number of electrons:                                                       4096
 Number of occupied orbitals:                                               2048
 Number of molecular orbitals:                                              2048

 Number of orbital functions:                                              20480
 Number of independent orbital functions:                                  20480

 Extrapolation method: initial_guess


 SCF WAVEFUNCTION OPTIMIZATION

  ----------------------------------- OT ---------------------------------------
  Minimizer      : DIIS                : direct inversion
                                         in the iterative subspace
                                         using   7 DIIS vectors
                                         safer DIIS on
  Preconditioner : FULL_KINETIC        : inversion of T + eS
  Precond_solver : DEFAULT
  stepsize       :    0.15000000                  energy_gap     :    0.20000000
  eps_taylor     :   0.10000E-15                  max_taylor     :             4
  ----------------------------------- OT ---------------------------------------

  Step     Update method      Time    Convergence         Total energy    Change
  ------------------------------------------------------------------------------
     1 OT DIIS     0.15E+00    4.7     0.00467324     -8480.4728425690 -8.48E+03
     2 OT DIIS     0.15E+00    1.6     0.00318266     -8587.4488310143 -1.07E+02
     3 OT DIIS     0.15E+00    1.6     0.00347210     -8644.7931966768 -5.73E+01
     4 OT DIIS     0.15E+00    1.6     0.00204380     -8678.2157923835 -3.34E+01
     5 OT DIIS     0.15E+00    1.6     0.00148292     -8717.4624183879 -3.92E+01
     6 OT DIIS     0.15E+00    1.6     0.00119954     -8738.7795043572 -2.13E+01
     7 OT DIIS     0.15E+00    1.6     0.00099038     -8755.0185947301 -1.62E+01
     8 OT DIIS     0.15E+00    1.6     0.00079894     -8767.5347825454 -1.25E+01
     9 OT DIIS     0.15E+00    1.6     0.00061581     -8780.1862563834 -1.27E+01
    10 OT DIIS     0.15E+00    1.6     0.00048147     -8788.6147471043 -8.43E+00
    11 OT DIIS     0.15E+00    1.6     0.00038278     -8794.1215228889 -5.51E+00
    12 OT DIIS     0.15E+00    1.6     0.00031960     -8797.5363589594 -3.41E+00
    13 OT DIIS     0.15E+00    1.6     0.00026435     -8799.9344030908 -2.40E+00
    14 OT DIIS     0.15E+00    1.6     0.00023004     -8801.7089305035 -1.77E+00
    15 OT DIIS     0.15E+00    1.6     0.00019592     -8803.0697888564 -1.36E+00
    16 OT DIIS     0.15E+00    1.6     0.00016642     -8804.2000843411 -1.13E+00
    17 OT DIIS     0.15E+00    1.6     0.00014164     -8805.0506655806 -8.51E-01
    18 OT DIIS     0.15E+00    1.6     0.00012638     -8805.6725421207 -6.22E-01
    19 OT DIIS     0.15E+00    1.6     0.00010717     -8806.2171485645 -5.45E-01
    20 OT DIIS     0.15E+00    1.6     0.00009868     -8806.5290018963 -3.12E-01
    21 OT DIIS     0.15E+00    1.6     0.00008484     -8806.8772741195 -3.48E-01
    22 OT DIIS     0.15E+00    1.6     0.00007717     -8807.0943334427 -2.17E-01
    23 OT DIIS     0.15E+00    1.6     0.00006815     -8807.2974129499 -2.03E-01
    24 OT DIIS     0.15E+00    1.6     0.00006019     -8807.4529078233 -1.55E-01
    25 OT DIIS     0.15E+00    1.6     0.00005010     -8807.5989834234 -1.46E-01
    26 OT DIIS     0.15E+00    1.6     0.00004000     -8807.6989662228 -1.00E-01
    27 OT DIIS     0.15E+00    1.6     0.00003462     -8807.7827122401 -8.37E-02
    28 OT DIIS     0.15E+00    1.6     0.00003071     -8807.7824932500  2.19E-04
    29 OT DIIS     0.15E+00    1.6     0.00002690     -8807.8200993195 -3.76E-02
    30 OT DIIS     0.15E+00    1.6     0.00002500     -8807.8399634016 -1.99E-02
    31 OT DIIS     0.15E+00    1.6     0.00002395     -8807.8566460922 -1.67E-02
    32 OT DIIS     0.15E+00    1.6     0.00002328     -8807.8682689642 -1.16E-02
    33 OT DIIS     0.15E+00    1.6     0.00002304     -8807.8827275965 -1.45E-02
    34 OT DIIS     0.15E+00    1.6     0.00002300     -8807.8854890296 -2.76E-03
    35 OT SD       0.15E+00    1.6     0.00002301     -8807.8907467596 -5.26E-03
    36 OT SD       0.15E+00    1.6     0.00002308     -8807.8940817096 -3.33E-03
    37 OT SD       0.15E+00    1.6     0.00002318     -8807.8974407043 -3.36E-03
    38 OT SD       0.15E+00    1.6     0.00002329     -8807.9008284718 -3.39E-03
    39 OT SD       0.15E+00    1.6     0.00002341     -8807.9042491083 -3.42E-03
    40 OT SD       0.15E+00    1.6     0.00002354     -8807.9077063658 -3.46E-03
    41 OT SD       0.15E+00    1.6     0.00002369     -8807.9112037365 -3.50E-03
    42 OT SD       0.15E+00    1.6     0.00002384     -8807.9147444866 -3.54E-03
    43 OT SD       0.15E+00    1.6     0.00002400     -8807.9183316715 -3.59E-03
    44 OT SD       0.15E+00    1.6     0.00002417     -8807.9219681410 -3.64E-03
    45 OT DIIS     0.15E+00    1.6     0.00002435     -8807.9256565390 -3.69E-03
    46 OT DIIS     0.15E+00    1.6     0.00004963     -8807.9134002644  1.23E-02
    47 OT SD       0.15E+00    1.6     0.00005089     -8807.9142388198 -8.39E-04
    48 OT SD       0.15E+00    1.6     0.00004015     -8807.9285018360 -1.43E-02
    49 OT SD       0.15E+00    1.6     0.00003559     -8807.9379819465 -9.48E-03
    50 OT SD       0.15E+00    1.6     0.00003336     -8807.9456601973 -7.68E-03

  Leaving inner SCF loop after reaching    50 steps.


  Electronic density on regular grids:      -4096.0000074634       -0.0000074634
  Core density on regular grids:             4095.9999999927       -0.0000000073
  Total charge density on r-space grids:       -0.0000074707
  Total charge density g-space grids:          -0.0000074707

  Overlap energy of the core charge distribution:               0.00004500798551
  Self energy of the core charge distribution:             -22442.43995950839599
  Core Hamiltonian energy:                                   6603.78893515498021
  Hartree energy:                                            9161.23633906508803
  Exchange-correlation energy:                              -2130.53101991693165

  Total energy:                                             -8807.94566019727426

 *** WARNING in qs_scf.F:576 :: SCF run NOT converged ***


 ENERGY| Total FORCE_EVAL ( QS ) energy [a.u.]:            -8807.952522807432615

 MD_INI| MD initialization
 MD_INI| Potential energy [hartree]                          -0.880795252281E+04
 MD_INI| Kinetic energy [hartree]                             0.218747769838E+01
 MD_INI| Temperature [K]                                              300.000000
 MD_INI| Cell volume [bohr^3]                                 1.037187315243E+05
 MD_INI| Cell volume [ang^3]                                  1.536953010365E+04
 MD_INI| Cell lengths [bohr]      4.69842608E+01  4.69842608E+01  4.69842608E+01
 MD_INI| Cell lengths [ang]       2.48630000E+01  2.48630000E+01  2.48630000E+01
 MD_INI| Cell angles [deg]        9.00000000E+01  9.00000000E+01  9.00000000E+01

 Number of electrons:                                                       4096
 Number of occupied orbitals:                                               2048
 Number of molecular orbitals:                                              2048

 Number of orbital functions:                                              20480
 Number of independent orbital functions:                                  20480

 Extrapolation method: PS Nth order
 Extrapolation order:  0


 SCF WAVEFUNCTION OPTIMIZATION

  ----------------------------------- OT ---------------------------------------
  Minimizer      : DIIS                : direct inversion
                                         in the iterative subspace
                                         using   7 DIIS vectors
                                         safer DIIS on
  Preconditioner : FULL_KINETIC        : inversion of T + eS
  Precond_solver : DEFAULT
  stepsize       :    0.15000000                  energy_gap     :    0.20000000
  eps_taylor     :   0.10000E-15                  max_taylor     :             4
  ----------------------------------- OT ---------------------------------------

  Step     Update method      Time    Convergence         Total energy    Change
  ------------------------------------------------------------------------------
     1 OT DIIS     0.15E+00    4.3     0.00010167     -8807.9545718917 -8.81E+03
     2 OT DIIS     0.15E+00    1.4     0.00007399     -8808.0093220676 -5.48E-02
     3 OT DIIS     0.15E+00    1.4     0.00005493     -8808.0647104277 -5.54E-02
     4 OT DIIS     0.15E+00    1.3     0.00004933     -8808.1021243399 -3.74E-02
     5 OT DIIS     0.15E+00    1.6     0.00004590     -8808.1450500067 -4.29E-02
     6 OT DIIS     0.15E+00    1.6     0.00004349     -8808.1872315842 -4.22E-02
     7 OT DIIS     0.15E+00    1.6     0.00003911     -8808.2475783210 -6.03E-02
     8 OT DIIS     0.15E+00    1.6     0.00002829     -8808.3274047982 -7.98E-02
     9 OT DIIS     0.15E+00    1.6     0.00002026     -8808.3586612780 -3.13E-02
    10 OT DIIS     0.15E+00    1.6     0.00001287     -8808.3785356958 -1.99E-02
    11 OT DIIS     0.15E+00    1.6     0.00001026     -8808.3792633380 -7.28E-04
    12 OT DIIS     0.15E+00    1.6     0.00000705     -8808.3828059419 -3.54E-03

  *** SCF run converged in    12 steps ***


  Electronic density on regular grids:      -4096.0000079114       -0.0000079114
  Core density on regular grids:             4095.9999999916       -0.0000000084
  Total charge density on r-space grids:       -0.0000079198
  Total charge density g-space grids:          -0.0000079198

  Overlap energy of the core charge distribution:               0.00004378131891
  Self energy of the core charge distribution:             -22442.43995950839599
  Core Hamiltonian energy:                                   6601.18528270886782
  Hartree energy:                                            9162.93997774289164
  Exchange-correlation energy:                              -2130.06815066659692

  Total energy:                                             -8808.38280594191565

 ENERGY| Total FORCE_EVAL ( QS ) energy [a.u.]:            -8808.383482128836476

 MD| ***************************************************************************
 MD| Step number                                                               1
 MD| Time [fs]                                                          0.500000
 MD| Conserved quantity [hartree]                            -0.880615757145E+04
 MD| ---------------------------------------------------------------------------
 MD|                                          Instantaneous             Averages
 MD| CPU time per MD step [s]                    108.380604           108.380604
 MD| Energy drift per atom [K]          -0.806965282372E+02   0.000000000000E+00
 MD| Potential energy [hartree]         -0.880838348213E+04  -0.880838348213E+04
 MD| Kinetic energy [hartree]            0.222591067799E+01   0.222591067799E+01
 MD| Temperature [K]                             305.270862           305.270862
 MD| ***************************************************************************

 Number of electrons:                                                       4096
 Number of occupied orbitals:                                               2048
 Number of molecular orbitals:                                              2048

 Number of orbital functions:                                              20480
 Number of independent orbital functions:                                  20480

 Extrapolation method: PS Nth order
 Extrapolation order:  1


 SCF WAVEFUNCTION OPTIMIZATION

  ----------------------------------- OT ---------------------------------------
  Minimizer      : DIIS                : direct inversion
                                         in the iterative subspace
                                         using   7 DIIS vectors
                                         safer DIIS on
  Preconditioner : FULL_KINETIC        : inversion of T + eS
  Precond_solver : DEFAULT
  stepsize       :    0.15000000                  energy_gap     :    0.20000000
  eps_taylor     :   0.10000E-15                  max_taylor     :             4
  ----------------------------------- OT ---------------------------------------

  Step     Update method      Time    Convergence         Total energy    Change
  ------------------------------------------------------------------------------
     1 OT DIIS     0.15E+00    4.3     0.00008001     -8808.4313117574 -8.81E+03
     2 OT DIIS     0.15E+00    1.3     0.00005271     -8808.4637467650 -3.24E-02
     3 OT DIIS     0.15E+00    1.3     0.00003321     -8808.4886516626 -2.49E-02
     4 OT DIIS     0.15E+00    1.3     0.00002251     -8808.5029467250 -1.43E-02
     5 OT DIIS     0.15E+00    1.3     0.00001406     -8808.5119297202 -8.98E-03
     6 OT DIIS     0.15E+00    1.3     0.00000837     -8808.5159231407 -3.99E-03

  *** SCF run converged in     6 steps ***


  Electronic density on regular grids:      -4096.0000084062       -0.0000084062
  Core density on regular grids:             4095.9999999941       -0.0000000059
  Total charge density on r-space grids:       -0.0000084121
  Total charge density g-space grids:          -0.0000084121

  Overlap energy of the core charge distribution:               0.00003948978893
  Self energy of the core charge distribution:             -22442.43995950839599
  Core Hamiltonian energy:                                   6592.75633880851819
  Hartree energy:                                            9168.97934240662289
  Exchange-correlation energy:                              -2127.81168433718813

  Total energy:                                             -8808.51592314065238

 ENERGY| Total FORCE_EVAL ( QS ) energy [a.u.]:            -8808.517234712966456

 MD| ***************************************************************************
 MD| Step number                                                               2
 MD| Time [fs]                                                          1.000000
 MD| Conserved quantity [hartree]                            -0.880616181948E+04
 MD| ---------------------------------------------------------------------------
 MD|                                          Instantaneous             Averages
 MD| CPU time per MD step [s]                     12.665513            60.523059
 MD| Energy drift per atom [K]          -0.815698476855E+02  -0.407849238428E+02
 MD| Potential energy [hartree]         -0.880851723471E+04  -0.880845035842E+04
 MD| Kinetic energy [hartree]            0.235541523688E+01   0.229066295743E+01
 MD| Temperature [K]                             323.031669           314.151266
 MD| ***************************************************************************

 Number of electrons:                                                       4096
 Number of occupied orbitals:                                               2048
 Number of molecular orbitals:                                              2048

 Number of orbital functions:                                              20480
 Number of independent orbital functions:                                  20480

 Extrapolation method: PS Nth order
 Extrapolation order:  2


 SCF WAVEFUNCTION OPTIMIZATION

  ----------------------------------- OT ---------------------------------------
  Minimizer      : DIIS                : direct inversion
                                         in the iterative subspace
                                         using   7 DIIS vectors
                                         safer DIIS on
  Preconditioner : FULL_KINETIC        : inversion of T + eS
  Precond_solver : DEFAULT
  stepsize       :    0.15000000                  energy_gap     :    0.20000000
  eps_taylor     :   0.10000E-15                  max_taylor     :             4
  ----------------------------------- OT ---------------------------------------

  Step     Update method      Time    Convergence         Total energy    Change
  ------------------------------------------------------------------------------
     1 OT DIIS     0.15E+00    4.3     0.00008987     -8808.3717413476 -8.81E+03
     2 OT DIIS     0.15E+00    1.3     0.00007427     -8808.4174364151 -4.57E-02
     3 OT DIIS     0.15E+00    1.3     0.00005876     -8808.4862028298 -6.88E-02
     4 OT DIIS     0.15E+00    1.3     0.00004979     -8808.5436872500 -5.75E-02
     5 OT DIIS     0.15E+00    1.3     0.00004006     -8808.6033848368 -5.97E-02
     6 OT DIIS     0.15E+00    1.6     0.00002840     -8808.6545538079 -5.12E-02
     7 OT DIIS     0.15E+00    1.6     0.00001854     -8808.6820986990 -2.75E-02
     8 OT DIIS     0.15E+00    1.6     0.00001252     -8808.6920693949 -9.97E-03
     9 OT DIIS     0.15E+00    1.6     0.00000891     -8808.6959108203 -3.84E-03

  *** SCF run converged in     9 steps ***


  Electronic density on regular grids:      -4096.0000081507       -0.0000081507
  Core density on regular grids:             4095.9999999985       -0.0000000015
  Total charge density on r-space grids:       -0.0000081522
  Total charge density g-space grids:          -0.0000081522

  Overlap energy of the core charge distribution:               0.00003222726282
  Self energy of the core charge distribution:             -22442.43995950839599
  Core Hamiltonian energy:                                   6579.97335081934307
  Hartree energy:                                            9178.11108454400528
  Exchange-correlation energy:                              -2124.34041890255594

  Total energy:                                             -8808.69591082034094

 ENERGY| Total FORCE_EVAL ( QS ) energy [a.u.]:            -8808.697758531565341

 MD| ***************************************************************************
 MD| Step number                                                               3
 MD| Time [fs]                                                          1.500000
 MD| Conserved quantity [hartree]                            -0.880616479909E+04
 MD| ---------------------------------------------------------------------------
 MD|                                          Instantaneous             Averages
 MD| CPU time per MD step [s]                     17.988727            46.344948
 MD| Energy drift per atom [K]          -0.821824044534E+02  -0.545840840463E+02
 MD| Potential energy [hartree]         -0.880869775853E+04  -0.880853282512E+04
 MD| Kinetic energy [hartree]            0.253295943947E+01   0.237142845145E+01
 MD| Temperature [K]                             347.380836           325.227789
 MD| ***************************************************************************

 Number of electrons:                                                       4096
 Number of occupied orbitals:                                               2048
 Number of molecular orbitals:                                              2048

 Number of orbital functions:                                              20480
 Number of independent orbital functions:                                  20480

 Extrapolation method: PS Nth order
 Extrapolation order:  3


 SCF WAVEFUNCTION OPTIMIZATION

  ----------------------------------- OT ---------------------------------------
  Minimizer      : DIIS                : direct inversion
                                         in the iterative subspace
                                         using   7 DIIS vectors
                                         safer DIIS on
  Preconditioner : FULL_KINETIC        : inversion of T + eS
  Precond_solver : DEFAULT
  stepsize       :    0.15000000                  energy_gap     :    0.20000000
  eps_taylor     :   0.10000E-15                  max_taylor     :             4
  ----------------------------------- OT ---------------------------------------

  Step     Update method      Time    Convergence         Total energy    Change
  ------------------------------------------------------------------------------
     1 OT DIIS     0.15E+00    4.3     0.00008299     -8808.7601032843 -8.81E+03
     2 OT DIIS     0.15E+00    1.3     0.00005686     -8808.7956205582 -3.55E-02
     3 OT DIIS     0.15E+00    1.3     0.00003614     -8808.8258149503 -3.02E-02
     4 OT DIIS     0.15E+00    1.3     0.00002270     -8808.8440351239 -1.82E-02
     5 OT DIIS     0.15E+00    1.3     0.00001489     -8808.8523331396 -8.30E-03
     6 OT DIIS     0.15E+00    1.3     0.00000969     -8808.8563578318 -4.02E-03

  *** SCF run converged in     6 steps ***


  Electronic density on regular grids:      -4096.0000085819       -0.0000085819
  Core density on regular grids:             4096.0000000009        0.0000000009
  Total charge density on r-space grids:       -0.0000085811
  Total charge density g-space grids:          -0.0000085811

  Overlap energy of the core charge distribution:               0.00002346614082
  Self energy of the core charge distribution:             -22442.43995950839599
  Core Hamiltonian energy:                                   6564.27157645917669
  Hartree energy:                                            9189.38286783752483
  Exchange-correlation energy:                              -2120.07086608620557

  Total energy:                                             -8808.85635783175712

 ENERGY| Total FORCE_EVAL ( QS ) energy [a.u.]:            -8808.858124105036040

 MD| ***************************************************************************
 MD| Step number                                                               4
 MD| Time [fs]                                                          2.000000
 MD| Conserved quantity [hartree]                            -0.880616980232E+04
 MD| ---------------------------------------------------------------------------
 MD|                                          Instantaneous             Averages
 MD| CPU time per MD step [s]                     13.342551            38.094349
 MD| Energy drift per atom [K]          -0.832109812206E+02  -0.617408083399E+02
 MD| Potential energy [hartree]         -0.880885812411E+04  -0.880861414987E+04
 MD| Kinetic energy [hartree]            0.268832178065E+01   0.245065178375E+01
 MD| Temperature [K]                             368.687889           336.092814
 MD| ***************************************************************************

 Number of electrons:                                                       4096
 Number of occupied orbitals:                                               2048
 Number of molecular orbitals:                                              2048

 Number of orbital functions:                                              20480
 Number of independent orbital functions:                                  20480

 Extrapolation method: PS Nth order
 Extrapolation order:  3


 SCF WAVEFUNCTION OPTIMIZATION

  ----------------------------------- OT ---------------------------------------
  Minimizer      : DIIS                : direct inversion
                                         in the iterative subspace
                                         using   7 DIIS vectors
                                         safer DIIS on
  Preconditioner : FULL_KINETIC        : inversion of T + eS
  Precond_solver : DEFAULT
  stepsize       :    0.15000000                  energy_gap     :    0.20000000
  eps_taylor     :   0.10000E-15                  max_taylor     :             4
  ----------------------------------- OT ---------------------------------------

  Step     Update method      Time    Convergence         Total energy    Change
  ------------------------------------------------------------------------------
     1 OT DIIS     0.15E+00    4.3     0.00005398     -8808.8521907136 -8.81E+03
     2 OT DIIS     0.15E+00    1.3     0.00004360     -8808.8685908308 -1.64E-02
     3 OT DIIS     0.15E+00    1.6     0.00002876     -8808.8948212772 -2.62E-02
     4 OT DIIS     0.15E+00    1.6     0.00002104     -8808.9082142194 -1.34E-02
     5 OT DIIS     0.15E+00    1.6     0.00001317     -8808.9185209123 -1.03E-02
     6 OT DIIS     0.15E+00    1.6     0.00000843     -8808.9223721012 -3.85E-03

  *** SCF run converged in     6 steps ***


  Electronic density on regular grids:      -4096.0000071800       -0.0000071800
  Core density on regular grids:             4095.9999999999       -0.0000000001
  Total charge density on r-space grids:       -0.0000071801
  Total charge density g-space grids:          -0.0000071801

  Overlap energy of the core charge distribution:               0.00001548084045
  Self energy of the core charge distribution:             -22442.43995950839599
  Core Hamiltonian energy:                                   6547.40961556243019
  Hartree energy:                                            9201.58656666127899
  Exchange-correlation energy:                              -2115.47861029733485

  Total energy:                                             -8808.92237210118037

 ENERGY| Total FORCE_EVAL ( QS ) energy [a.u.]:            -8808.923935112237814

 MD| ***************************************************************************
 MD| Step number                                                               5
 MD| Time [fs]                                                          2.500000
 MD| Conserved quantity [hartree]                            -0.880617229058E+04
 MD| ---------------------------------------------------------------------------
 MD|                                          Instantaneous             Averages
 MD| CPU time per MD step [s]                     14.294206            33.334320
 MD| Energy drift per atom [K]          -0.837225222976E+02  -0.661371511314E+02
 MD| Potential energy [hartree]         -0.880892393511E+04  -0.880867610692E+04
 MD| Kinetic energy [hartree]            0.275164453524E+01   0.251085033405E+01
 MD| Temperature [K]                             377.372241           344.348699
 MD| ***************************************************************************

 Number of electrons:                                                       4096
 Number of occupied orbitals:                                               2048
 Number of molecular orbitals:                                              2048

 Number of orbital functions:                                              20480
 Number of independent orbital functions:                                  20480

 Extrapolation method: PS Nth order
 Extrapolation order:  3


 SCF WAVEFUNCTION OPTIMIZATION

  ----------------------------------- OT ---------------------------------------
  Minimizer      : DIIS                : direct inversion
                                         in the iterative subspace
                                         using   7 DIIS vectors
                                         safer DIIS on
  Preconditioner : FULL_KINETIC        : inversion of T + eS
  Precond_solver : DEFAULT
  stepsize       :    0.15000000                  energy_gap     :    0.20000000
  eps_taylor     :   0.10000E-15                  max_taylor     :             4
  ----------------------------------- OT ---------------------------------------

  Step     Update method      Time    Convergence         Total energy    Change
  ------------------------------------------------------------------------------
     1 OT DIIS     0.15E+00    4.3     0.00004459     -8808.8152216549 -8.81E+03
     2 OT DIIS     0.15E+00    1.3     0.00003657     -8808.8265175091 -1.13E-02
     3 OT DIIS     0.15E+00    1.3     0.00002088     -8808.8466693575 -2.02E-02
     4 OT DIIS     0.15E+00    1.3     0.00001310     -8808.8539212099 -7.25E-03
     5 OT DIIS     0.15E+00    1.3     0.00000884     -8808.8567200194 -2.80E-03

  *** SCF run converged in     5 steps ***


  Electronic density on regular grids:      -4096.0000062625       -0.0000062625
  Core density on regular grids:             4095.9999999983       -0.0000000017
  Total charge density on r-space grids:       -0.0000062642
  Total charge density g-space grids:          -0.0000062642

  Overlap energy of the core charge distribution:               0.00000971625660
  Self energy of the core charge distribution:             -22442.43995950839599
  Core Hamiltonian energy:                                   6531.17272281936312
  Hartree energy:                                            9213.44169095251527
  Exchange-correlation energy:                              -2111.03118399910636

  Total energy:                                             -8808.85672001936837

 ENERGY| Total FORCE_EVAL ( QS ) energy [a.u.]:            -8808.858096163481605

 MD| ***************************************************************************
 MD| Step number                                                               6
 MD| Time [fs]                                                          3.000000
 MD| Conserved quantity [hartree]                            -0.880617011424E+04
 MD| ---------------------------------------------------------------------------
 MD|                                          Instantaneous             Averages
 MD| CPU time per MD step [s]                     11.964846            29.772741
 MD| Energy drift per atom [K]          -0.832751059902E+02  -0.689934769412E+02
 MD| Potential energy [hartree]         -0.880885809616E+04  -0.880870643846E+04
 MD| Kinetic energy [hartree]            0.268798192158E+01   0.254037226530E+01
 MD| Temperature [K]                             368.641279           348.397463
 MD| ***************************************************************************

 Number of electrons:                                                       4096
 Number of occupied orbitals:                                               2048
 Number of molecular orbitals:                                              2048

 Number of orbital functions:                                              20480
 Number of independent orbital functions:                                  20480

 Extrapolation method: PS Nth order
 Extrapolation order:  3


 SCF WAVEFUNCTION OPTIMIZATION

  ----------------------------------- OT ---------------------------------------
  Minimizer      : DIIS                : direct inversion
                                         in the iterative subspace
                                         using   7 DIIS vectors
                                         safer DIIS on
  Preconditioner : FULL_KINETIC        : inversion of T + eS
  Precond_solver : DEFAULT
  stepsize       :    0.15000000                  energy_gap     :    0.20000000
  eps_taylor     :   0.10000E-15                  max_taylor     :             4
  ----------------------------------- OT ---------------------------------------

  Step     Update method      Time    Convergence         Total energy    Change
  ------------------------------------------------------------------------------
     1 OT DIIS     0.15E+00    4.3     0.00004551     -8808.6384763165 -8.81E+03
     2 OT DIIS     0.15E+00    1.3     0.00003729     -8808.6502432090 -1.18E-02
     3 OT DIIS     0.15E+00    1.3     0.00002023     -8808.6710754395 -2.08E-02
     4 OT DIIS     0.15E+00    1.3     0.00001308     -8808.6771450755 -6.07E-03
     5 OT DIIS     0.15E+00    1.3     0.00000755     -8808.6802141455 -3.07E-03

  *** SCF run converged in     5 steps ***


  Electronic density on regular grids:      -4096.0000050933       -0.0000050933
  Core density on regular grids:             4095.9999999989       -0.0000000011
  Total charge density on r-space grids:       -0.0000050945
  Total charge density g-space grids:          -0.0000050945

  Overlap energy of the core charge distribution:               0.00000622092099
  Self energy of the core charge distribution:             -22442.43995950839599
  Core Hamiltonian energy:                                   6517.03118110366540
  Hartree energy:                                            9223.86272520656348
  Exchange-correlation energy:                              -2107.13416716825850

  Total energy:                                             -8808.68021414550276

 ENERGY| Total FORCE_EVAL ( QS ) energy [a.u.]:            -8808.681147791152398

 MD| ***************************************************************************
 MD| Step number                                                               7
 MD| Time [fs]                                                          3.500000
 MD| Conserved quantity [hartree]                            -0.880616595844E+04
 MD| ---------------------------------------------------------------------------
 MD|                                          Instantaneous             Averages
 MD| CPU time per MD step [s]                     11.958775            27.227889
 MD| Energy drift per atom [K]          -0.824207463515E+02  -0.709116582856E+02
 MD| Potential energy [hartree]         -0.880868114779E+04  -0.880870282551E+04
 MD| Kinetic energy [hartree]            0.251518934964E+01   0.253677470592E+01
 MD| Temperature [K]                             344.943770           347.904078
 MD| ***************************************************************************

 Number of electrons:                                                       4096
 Number of occupied orbitals:                                               2048
 Number of molecular orbitals:                                              2048

 Number of orbital functions:                                              20480
 Number of independent orbital functions:                                  20480

 Extrapolation method: PS Nth order
 Extrapolation order:  3


 SCF WAVEFUNCTION OPTIMIZATION

  ----------------------------------- OT ---------------------------------------
  Minimizer      : DIIS                : direct inversion
                                         in the iterative subspace
                                         using   7 DIIS vectors
                                         safer DIIS on
  Preconditioner : FULL_KINETIC        : inversion of T + eS
  Precond_solver : DEFAULT
  stepsize       :    0.15000000                  energy_gap     :    0.20000000
  eps_taylor     :   0.10000E-15                  max_taylor     :             4
  ----------------------------------- OT ---------------------------------------

  Step     Update method      Time    Convergence         Total energy    Change
  ------------------------------------------------------------------------------
     1 OT DIIS     0.15E+00    4.3     0.00004640     -8808.4083494641 -8.81E+03
     2 OT DIIS     0.15E+00    1.3     0.00003771     -8808.4205189535 -1.22E-02
     3 OT DIIS     0.15E+00    1.4     0.00002094     -8808.4409406033 -2.04E-02
     4 OT DIIS     0.15E+00    1.3     0.00001360     -8808.4479497306 -7.01E-03
     5 OT DIIS     0.15E+00    1.3     0.00001073     -8808.4504245489 -2.47E-03
     6 OT DIIS     0.15E+00    1.3     0.00000737     -8808.4530066330 -2.58E-03

  *** SCF run converged in     6 steps ***


  Electronic density on regular grids:      -4096.0000038469       -0.0000038469
  Core density on regular grids:             4096.0000000008        0.0000000008
  Total charge density on r-space grids:       -0.0000038460
  Total charge density g-space grids:          -0.0000038460

  Overlap energy of the core charge distribution:               0.00000436187177
  Self energy of the core charge distribution:             -22442.43995950839599
  Core Hamiltonian energy:                                   6506.06509272894618
  Hartree energy:                                            9232.01158640020913
  Exchange-correlation energy:                              -2104.08973061559391

  Total energy:                                             -8808.45300663296439

 ENERGY| Total FORCE_EVAL ( QS ) energy [a.u.]:            -8808.454571393103834

 MD| ***************************************************************************
 MD| Step number                                                               8
 MD| Time [fs]                                                          4.000000
 MD| Conserved quantity [hartree]                            -0.880616115147E+04
 MD| ---------------------------------------------------------------------------
 MD|                                          Instantaneous             Averages
 MD| CPU time per MD step [s]                     13.319754            25.489372
 MD| Energy drift per atom [K]          -0.814325182171E+02  -0.722267657770E+02
 MD| Potential energy [hartree]         -0.880845457139E+04  -0.880867179374E+04
 MD| Kinetic energy [hartree]            0.229341991891E+01   0.250635535755E+01
 MD| Temperature [K]                             314.529367           343.732239
 MD| ***************************************************************************

 Number of electrons:                                                       4096
 Number of occupied orbitals:                                               2048
 Number of molecular orbitals:                                              2048

 Number of orbital functions:                                              20480
 Number of independent orbital functions:                                  20480

 Extrapolation method: PS Nth order
 Extrapolation order:  3


 SCF WAVEFUNCTION OPTIMIZATION

  ----------------------------------- OT ---------------------------------------
  Minimizer      : DIIS                : direct inversion
                                         in the iterative subspace
                                         using   7 DIIS vectors
                                         safer DIIS on
  Preconditioner : FULL_KINETIC        : inversion of T + eS
  Precond_solver : DEFAULT
  stepsize       :    0.15000000                  energy_gap     :    0.20000000
  eps_taylor     :   0.10000E-15                  max_taylor     :             4
  ----------------------------------- OT ---------------------------------------

  Step     Update method      Time    Convergence         Total energy    Change
  ------------------------------------------------------------------------------
     1 OT DIIS     0.15E+00    4.3     0.00004050     -8808.2146952034 -8.81E+03
     2 OT DIIS     0.15E+00    1.3     0.00003407     -8808.2241572183 -9.46E-03
     3 OT DIIS     0.15E+00    1.3     0.00001718     -8808.2450182591 -2.09E-02
     4 OT DIIS     0.15E+00    1.4     0.00001245     -8808.2495173816 -4.50E-03
     5 OT DIIS     0.15E+00    1.3     0.00000891     -8808.2522163335 -2.70E-03

  *** SCF run converged in     5 steps ***


  Electronic density on regular grids:      -4096.0000022243       -0.0000022243
  Core density on regular grids:             4096.0000000016        0.0000000016
  Total charge density on r-space grids:       -0.0000022227
  Total charge density g-space grids:          -0.0000022227

  Overlap energy of the core charge distribution:               0.00000353692336
  Self energy of the core charge distribution:             -22442.43995950839599
  Core Hamiltonian energy:                                   6498.75943660991470
  Hartree energy:                                            9237.49747596023735
  Exchange-correlation energy:                              -2102.06917293218703

  Total energy:                                             -8808.25221633350884

 ENERGY| Total FORCE_EVAL ( QS ) energy [a.u.]:            -8808.253873918656609

 MD| ***************************************************************************
 MD| Step number                                                               9
 MD| Time [fs]                                                          4.500000
 MD| Conserved quantity [hartree]                            -0.880615635642E+04
 MD| ---------------------------------------------------------------------------
 MD|                                          Instantaneous             Averages
 MD| CPU time per MD step [s]                     12.023912            23.993210
 MD| Energy drift per atom [K]          -0.804467401206E+02  -0.731400962596E+02
 MD| Potential energy [hartree]         -0.880825387392E+04  -0.880862535821E+04
 MD| Kinetic energy [hartree]            0.209751749425E+01   0.246092892829E+01
 MD| Temperature [K]                             287.662475           337.502265
 MD| ***************************************************************************

 Number of electrons:                                                       4096
 Number of occupied orbitals:                                               2048
 Number of molecular orbitals:                                              2048

 Number of orbital functions:                                              20480
 Number of independent orbital functions:                                  20480

 Extrapolation method: PS Nth order
 Extrapolation order:  3


 SCF WAVEFUNCTION OPTIMIZATION

  ----------------------------------- OT ---------------------------------------
  Minimizer      : DIIS                : direct inversion
                                         in the iterative subspace
                                         using   7 DIIS vectors
                                         safer DIIS on
  Preconditioner : FULL_KINETIC        : inversion of T + eS
  Precond_solver : DEFAULT
  stepsize       :    0.15000000                  energy_gap     :    0.20000000
  eps_taylor     :   0.10000E-15                  max_taylor     :             4
  ----------------------------------- OT ---------------------------------------

  Step     Update method      Time    Convergence         Total energy    Change
  ------------------------------------------------------------------------------
     1 OT DIIS     0.15E+00    4.3     0.00004012     -8808.1037272616 -8.81E+03
     2 OT DIIS     0.15E+00    1.3     0.00003342     -8808.1129249217 -9.20E-03
     3 OT DIIS     0.15E+00    1.3     0.00002048     -8808.1296918766 -1.68E-02
     4 OT DIIS     0.15E+00    1.3     0.00001263     -8808.1379701692 -8.28E-03
     5 OT DIIS     0.15E+00    1.3     0.00001017     -8808.1402116850 -2.24E-03
     6 OT DIIS     0.15E+00    1.4     0.00000715     -8808.1425472656 -2.34E-03

  *** SCF run converged in     6 steps ***


  Electronic density on regular grids:      -4096.0000006753       -0.0000006753
  Core density on regular grids:             4096.0000000008        0.0000000008
  Total charge density on r-space grids:       -0.0000006746
  Total charge density g-space grids:          -0.0000006746

  Overlap energy of the core charge distribution:               0.00000340787815
  Self energy of the core charge distribution:             -22442.43995950839599
  Core Hamiltonian energy:                                   6495.52247447834998
  Hartree energy:                                            9239.94935090524814
  Exchange-correlation energy:                              -2101.17441654867071

  Total energy:                                             -8808.14254726559193

 ENERGY| Total FORCE_EVAL ( QS ) energy [a.u.]:            -8808.143948348984850

 MD| ***************************************************************************
 MD| Step number                                                              10
 MD| Time [fs]                                                          5.000000
 MD| Conserved quantity [hartree]                            -0.880615520889E+04
 MD| ---------------------------------------------------------------------------
 MD|                                          Instantaneous             Averages
 MD| CPU time per MD step [s]                     13.364962            22.930385
 MD| Energy drift per atom [K]          -0.802108272274E+02  -0.738471693564E+02
 MD| Potential energy [hartree]         -0.880814394835E+04  -0.880857721722E+04
 MD| Kinetic energy [hartree]            0.198873945876E+01   0.241370998134E+01
 MD| Temperature [K]                             272.744192           331.026458
 MD| ***************************************************************************

 -------------------------------------------------------------------------------
 -                                                                             -
 -                                DBCSR STATISTICS                             -
 -                                                                             -
 -------------------------------------------------------------------------------
 COUNTER                                    TOTAL       BLAS       SMM       ACC
 flops     9 x    32 x    32          13287555072     100.0%      0.0%      0.0%
 flops    22 x    32 x    32          16240345088     100.0%      0.0%      0.0%
 flops    32 x   128 x   128         904090615808     100.0%      0.0%      0.0%
 flops   480 x   128 x   128        2246804766720     100.0%      0.0%      0.0%
 flops   489 x   128 x   128        2288932356096     100.0%      0.0%      0.0%
 flops   498 x   128 x   128        2331059945472     100.0%      0.0%      0.0%
 flops   533 x   128 x   128        2494889459712     100.0%      0.0%      0.0%
 flops    96 x   128 x   128        2712271847424     100.0%      0.0%      0.0%
 flops   636 x   128 x   128        2977016315904     100.0%      0.0%      0.0%
 flops   645 x   128 x   128        3019143905280     100.0%      0.0%      0.0%
 flops   649 x   128 x   128        3037867278336     100.0%      0.0%      0.0%
 flops   662 x   128 x   128        3098718240768     100.0%      0.0%      0.0%
 flops   711 x   128 x   128        3328079560704     100.0%      0.0%      0.0%
 flops    32 x   128 x  1280        4864050462720     100.0%      0.0%      0.0%
 flops   480 x   128 x  1280        5113695436800     100.0%      0.0%      0.0%
 flops   489 x   128 x  1280        5209577226240     100.0%      0.0%      0.0%
 flops   498 x   128 x  1280        5305459015680     100.0%      0.0%      0.0%
 flops     9 x     9 x   128        5648350040064     100.0%      0.0%      0.0%
 flops   533 x   128 x  1280        5678332641280     100.0%      0.0%      0.0%
 flops   689 x   128 x   128        6450202017792     100.0%      0.0%      0.0%
 flops   702 x   128 x   128        6571903942656     100.0%      0.0%      0.0%
 flops   636 x   128 x  1280        6775646453760     100.0%      0.0%      0.0%
 flops   645 x   128 x  1280        6871528243200     100.0%      0.0%      0.0%
 flops   649 x   128 x  1280        6914142371840     100.0%      0.0%      0.0%
 flops   662 x   128 x  1280        7052638289920     100.0%      0.0%      0.0%
 flops   711 x   128 x  1280        7574661365760     100.0%      0.0%      0.0%
 flops     9 x    22 x   128        7855827369984     100.0%      0.0%      0.0%
 flops    22 x     9 x   128        7866447519744     100.0%      0.0%      0.0%
 flops   520 x   128 x   128        9736153989120     100.0%      0.0%      0.0%
 flops    64 x   128 x   128       10849087389696     100.0%      0.0%      0.0%
 flops    22 x    22 x   128       11004752822272     100.0%      0.0%      0.0%
 flops   658 x   128 x   128       12319979470848     100.0%      0.0%      0.0%
 flops    96 x   128 x  1280       14592151388160     100.0%      0.0%      0.0%
 flops   689 x   128 x  1280       14680567316480     100.0%      0.0%      0.0%
 flops   702 x   128 x  1280       14957559152640     100.0%      0.0%      0.0%
 flops   680 x   128 x   128       15914867097600     100.0%      0.0%      0.0%
 flops   520 x   128 x  1280       22159346892800     100.0%      0.0%      0.0%
 flops     9 x    32 x     9       23722505551872     100.0%      0.0%      0.0%
 flops   658 x   128 x  1280       28040096645120     100.0%      0.0%      0.0%
 flops    22 x    32 x     9       33153656684544     100.0%      0.0%      0.0%
 flops     9 x    32 x    22       33153656684544     100.0%      0.0%      0.0%
 flops   680 x   128 x  1280       36222009344000     100.0%      0.0%      0.0%
 flops    22 x    32 x    22       46115724689408     100.0%      0.0%      0.0%
 flops    64 x   128 x  1280       58368605552640     100.0%      0.0%      0.0%
 flops inhomo. stacks              65677129940992     100.0%      0.0%      0.0%
 flops total                       574.888715E+12     100.0%      0.0%      0.0%
 flops max/rank                      4.523581E+12     100.0%      0.0%      0.0%
 matmuls inhomo. stacks                   1052160     100.0%      0.0%      0.0%
 matmuls total                        11986131072     100.0%      0.0%      0.0%
 number of processed stacks              37390768     100.0%      0.0%      0.0%
 average stack size                                   320.6       0.0       0.0
 marketing flops                     1.147134E+15
 -------------------------------------------------------------------------------
 # multiplications                           2431
 max memory usage/rank             632.819712E+06
 # max total images/rank                        2
 # max 3D layers                                1
 # MPI messages exchanged                 9023872
 MPI messages size (bytes):
  total size                        19.341863E+12
  min size                           0.000000E+00
  max size                          26.214400E+06
  average size                       2.143410E+06
 MPI breakdown and total messages size (bytes):
             size <=      128               59312                        0
       128 < size <=     8192                   0                        0
      8192 < size <=    32768                1232                 40370176
     32768 < size <=   131072             2508800             328833433600
    131072 < size <=  4194304             5651968            8632213176320
   4194304 < size <= 16777216              558720            3988638972960
  16777216 < size                          243840            6392119296000
 -------------------------------------------------------------------------------

 *** WARNING in dbcsr_mm.F:294 :: Using a non-square number of MPI ranks ***
 *** might lead to poor performance. Used ranks: 128 Suggested: 121 256  ***

 -------------------------------------------------------------------------------
 -                                                                             -
 -                      DBCSR MESSAGE PASSING PERFORMANCE                      -
 -                                                                             -
 -------------------------------------------------------------------------------
 ROUTINE             CALLS      AVE VOLUME [Bytes]
 MP_Bcast               45                     12.
 MP_Allreduce        13019                     67.
 MP_Alltoall          9270                 362360.
 MP_ISend           153332                1015267.
 MP_IRecv           153332                1014784.
 -------------------------------------------------------------------------------

 -------------------------------------------------------------------------------
 -                                                                             -
 -                                GRID STATISTICS                              -
 -                                                                             -
 -------------------------------------------------------------------------------
 LP    KERNEL             BACKEND                              COUNT     PERCENT
 1     collocate ortho    REF                              135745301      21.21%
 1     integrate ortho    REF                              130493488      20.39%
 2     integrate ortho    REF                               88995618      13.90%
 2     collocate ortho    REF                               84560451      13.21%
 0     collocate ortho    REF                               75171698      11.74%
 0     integrate ortho    REF                               68664071      10.73%
 3     integrate ortho    REF                               26282166       4.11%
 3     collocate ortho    REF                               20755016       3.24%
 4     integrate ortho    REF                                3293394       0.51%
 0     collocate general  REF                                2162688       0.34%
 1     integrate general  REF                                2162688       0.34%
 4     collocate ortho    REF                                1638196       0.26%
 5     integrate ortho    REF                                 141925       0.02%
 -------------------------------------------------------------------------------

 MEMORY| Estimated peak process memory [MiB]                                 604

 -------------------------------------------------------------------------------
 -                                                                             -
 -                         MESSAGE PASSING PERFORMANCE                         -
 -                                                                             -
 -------------------------------------------------------------------------------

 ROUTINE             CALLS      AVE VOLUME [Bytes]
 MP_Group                4
 MP_Bcast             4017                  58286.
 MP_Allreduce        11014                   1476.
 MP_Sync               136
 MP_Alltoall          2210                3851984.
 MP_ISendRecv        64516                  31968.
 MP_Wait             87538
 MP_comm_split          66
 MP_ISend            20648                 112961.
 MP_IRecv            20648                 112961.
 -------------------------------------------------------------------------------


 -------------------------------------------------------------------------------
 -                                                                             -
 -                           R E F E R E N C E S                               -
 -                                                                             -
 -------------------------------------------------------------------------------
 
 CP2K version 8.2, the CP2K developers group (2021).
 CP2K is freely available from https://www.cp2k.org/ .

 Kuehne,Thomas D.; Iannuzzi,Marcella; Del Ben,Mauro;
 Rybkin,Vladimir V.; Seewald,Patrick; Stein,Frederick; Laino,Teodoro;
 Khaliullin,Rustam Z.; Schuett,Ole; Schiffmann,Florian; Golze,Dorothea;
 Wilhelm,Jan; Chulkov,Sergey; Bani-Hashemian,Mohammad Hossein;
 Weber,Valery; Borstnik,Urban; Taillefumier,Mathieu;
 Jakobovits,Alice Shoshana; Lazzaro,Alfio; Pabst,Hans; Mueller,Tiziano;
 Schade,Robert; Guidon,Manuel; Andermatt,Samuel; Holmberg,Nico;
 Schenter,Gregory K.; Hehn,Anna; Bussy,Augustin; Belleflamme,Fabian;
 Tabacchi,Gloria; Gloess,Andreas; Lass,Michael; Bethune,Iain;
 Mundy,Christopher J.; Plessl,Christian; Watkins,Matt;
 VandeVondele,Joost; Krack,Matthias; Hutter,Juerg. 
 The Journal of Chemical Physics, 152 (19), (2020). 
 CP2K: An electronic structure and molecular dynamics software package -
 Quickstep: Efficient and accurate electronic structure calculations.
 https://doi.org/10.1063/5.0007045

 Schuett, Ole; Messmer, Peter; Hutter, Juerg; VandeVondele, Joost. 
 Electronic Structure Calculations on Graphics Processing Units, John
 Wiley & Sons, Ltd, 173-190 (2016). 
 GPU-Accelerated Sparse Matrix-Matrix Multiplication for
 Linear Scaling Density Functional Theory.
 https://doi.org/10.1002/9781118670712.ch8

 Borstnik, U; VandeVondele, J; Weber, V; Hutter, J. 
 PARALLEL COMPUTING, 40 (5-6), 47-58 (2014). 
 Sparse matrix multiplication: The distributed block-compressed sparse
 row library.
 https://doi.org/10.1016/j.parco.2014.03.012

 Hutter, J; Iannuzzi, M; Schiffmann, F; VandeVondele, J. 
 WIREs Comput Mol Sci., 4 (1), 15-25 (2014). 
 CP2K: atomistic simulations of condensed matter systems.
 https://doi.org/10.1002/wcms.1159

 Marek, A; Blum, V; Johanni, R; Havu, V; Lang, B; Auckenthaler, T;
 Heinecke, A; Bungartz, H; Lederer, H. 
 Journal of Physics: Condensed Matter, 26 (21), (2014). 
 The ELPA library: scalable parallel eigenvalue solutions for
 electronic structure
 theory and computational science.
 https://doi.org/10.1088/0953-8984/26/21/213201

 Krack, M. 
 THEORETICAL CHEMISTRY ACCOUNTS, 114 (1-3), 145-152 (2005). 
 Pseudopotentials for H to Kr optimized for gradient-corrected
 exchange-correlation functionals.
 https://doi.org/10.1007/s00214-005-0655-y

 VandeVondele, J; Krack, M; Mohamed, F; Parrinello, M; Chassaing, T;
 Hutter, J. COMPUTER PHYSICS COMMUNICATIONS, 167 (2), 103-128 (2005). 
 QUICKSTEP: Fast and accurate density functional calculations using a
 mixed Gaussian and plane waves approach.
 https://doi.org/10.1016/j.cpc.2004.12.014

 Frigo, M; Johnson, SG. 
 PROCEEDINGS OF THE IEEE, 93 (2), 216-231 (2005). 
 The design and implementation of FFTW3.
 https://doi.org/10.1109/JPROC.2004.840301

 VandeVondele, J; Hutter, J. 
 JOURNAL OF CHEMICAL PHYSICS, 118 (10), 4365-4369 (2003). 
 An efficient orbital transformation method for electronic structure
 calculations.
 https://doi.org/10.1063/1.1543154

 Hartwigsen, C; Goedecker, S; Hutter, J. 
 PHYSICAL REVIEW B, 58 (7), 3641-3662 (1998). 
 Relativistic separable dual-space Gaussian pseudopotentials from H to Rn.
 https://doi.org/10.1103/PhysRevB.58.3641

 Lippert, G; Hutter, J; Parrinello, M. 
 MOLECULAR PHYSICS, 92 (3), 477-487 (1997). 
 A hybrid Gaussian and plane wave density functional scheme.
 https://doi.org/10.1080/002689797170220

 Goedecker, S; Teter, M; Hutter, J. 
 PHYSICAL REVIEW B, 54 (3), 1703-1710 (1996). 
 Separable dual-space Gaussian pseudopotentials.
 https://doi.org/10.1103/PhysRevB.54.1703


 -------------------------------------------------------------------------------
 -                                                                             -
 -                                T I M I N G                                  -
 -                                                                             -
 -------------------------------------------------------------------------------
 SUBROUTINE                       CALLS  ASD         SELF TIME        TOTAL TIME
                                MAXIMUM       AVERAGE  MAXIMUM  AVERAGE  MAXIMUM
 CP2K                                 1  1.0    0.198    0.201  230.474  230.475
 qs_mol_dyn_low                       1  2.0    0.004    0.004  229.777  229.843
 qs_forces                           11  3.9    0.005    0.005  229.187  229.188
 qs_energies                         11  4.9    0.013    0.026  224.775  224.828
 scf_env_do_scf                      11  5.9    0.001    0.001  205.369  205.378
 scf_env_do_scf_inner_loop          116  6.6    0.004    0.012  170.731  170.732
 velocity_verlet                     10  3.0    0.002    0.002  143.314  143.323
 dbcsr_multiply_generic            2431 12.5    0.205    0.215  134.507  136.306
 qs_scf_new_mos                     116  7.6    0.001    0.001  130.997  131.660
 qs_scf_loop_do_ot                  116  8.6    0.001    0.001  130.996  131.659
 ot_scf_mini                        116  9.6    0.005    0.005  123.933  124.626
 multiply_cannon                   2431 13.5    0.302    0.322  110.584  113.575
 multiply_cannon_loop              2431 14.5    0.343    0.376  108.317  111.309
 multiply_cannon_multrec          38896 15.5   89.008   92.980   89.028   93.000
 ot_mini                            116 10.6    0.002    0.003   74.111   74.783
 apply_preconditioner_dbcsr         127 12.6    0.000    0.000   36.680   37.760
 apply_single                       127 13.6    0.001    0.001   36.680   37.759
 qs_ot_get_derivative               116 11.6    0.002    0.002   36.981   37.742
 ot_diis_step                       116 11.6    0.010    0.012   36.795   36.796
 init_scf_loop                       11  6.9    0.000    0.001   34.516   34.517
 rebuild_ks_matrix                  127  8.3    0.001    0.001   30.384   31.175
 qs_ks_build_kohn_sham_matrix       127  9.3    0.024    0.029   30.383   31.174
 prepare_preconditioner              11  7.9    0.000    0.000   30.207   30.275
 make_preconditioner                 11  8.9    0.000    0.001   30.206   30.275
 make_full_inverse_cholesky          11  9.9    0.001    0.001   29.226   29.378
 qs_ks_update_qs_env                127  7.6    0.002    0.003   27.632   28.359
 qs_ot_get_p                        127 10.4    0.001    0.002   24.565   25.317
 mp_waitall_1                    339162 16.1   15.931   20.387   15.931   20.387
 cp_fm_cholesky_invert               11 10.9   18.057   18.066   18.057   18.066
 mp_irecv_dv                      96285 16.1   10.867   17.083   10.867   17.083
 make_m2s                          4862 13.5    0.120    0.133   16.334   16.831
 qs_ot_p2m_diag                      66 11.2    0.137    0.146   16.529   16.553
 qs_rho_update_rho                  127  7.7    0.001    0.001   15.604   15.786
 calculate_rho_elec                 127  8.7    0.092    0.095   15.603   15.785
 multiply_cannon_metrocomm4       36465 15.5    0.123    0.132    9.081   15.628
 cp_dbcsr_syevd                      66 12.2    0.007    0.007   15.551   15.555
 cp_fm_diag_elpa                     66 13.2    0.000    0.001   15.408   15.411
 cp_fm_redistribute_end              66 14.2   10.987   15.281   11.015   15.284
 cp_fm_diag_elpa_base                66 14.2    4.192   14.930    4.242   15.105
 make_images                       4862 14.5    1.121    1.599   13.088   13.721
 qs_ot_get_derivative_diag           62 12.2    0.002    0.002   13.267   13.641
 init_scf_run                        11  5.9    0.000    0.001   13.382   13.383
 scf_env_initial_rho_setup           11  6.9    0.000    0.001   13.381   13.382
 wfi_extrapolate                     11  7.9    0.001    0.002   12.074   12.075
 sum_up_and_integrate               127 10.3    0.035    0.041   10.565   10.587
 integrate_v_rspace                 127 11.3    0.004    0.005   10.530   10.554
 cp_fm_cholesky_decompose            22 10.9    9.577    9.623    9.577    9.623
 grid_collocate_task_list           127  9.7    8.724    9.298    8.724    9.298
 qs_ot_get_derivative_taylor         54 13.0    0.002    0.002    8.920    9.273
 make_images_data                  4862 15.5    0.070    0.082    8.015    8.968
 multiply_cannon_metrocomm3       38896 15.5    0.108    0.116    5.302    8.901
 hybrid_alltoall_any               5031 16.4    0.228    1.763    7.559    8.742
 calculate_dm_sparse                127  9.5    0.001    0.001    7.807    8.695
 mp_sum_l                         11831 13.4    5.522    7.625    5.522    7.625
 qs_ot_get_orbitals                 116 10.6    0.001    0.001    7.369    7.495
 pw_transfer                       1535 11.6    0.105    0.119    6.903    7.409
 fft_wrap_pw1pw2                   1281 12.7    0.010    0.011    6.743    7.261
 fft_wrap_pw1pw2_140                519 13.2    0.228    0.241    6.083    6.724
 fft3d_ps                          1281 14.7    1.900    3.094    6.135    6.685
 grid_integrate_task_list           127 12.3    5.970    6.220    5.970    6.220
 cp_dbcsr_sm_fm_multiply             37  9.5    0.002    0.002    6.205    6.212
 density_rs2pw                      127  9.7    0.005    0.006    5.303    5.949
 multiply_cannon_metrocomm2       34034 15.5    0.107    0.118    2.442    5.918
 rs_pw_transfer                    1038 11.9    0.014    0.015    5.272    5.810
 cp_gemm                             81  9.0    0.000    0.000    5.690    5.723
 cp_gemm_fm_gemm                     81 10.0    0.005    0.005    5.689    5.722
 cp_fm_gemm                          81 11.0    5.684    5.717    5.684    5.717
 cp_dbcsr_sm_fm_multiply_core        37 10.5    0.000    0.000    5.031    5.289
 mp_sum_d                          4424 12.1    3.823    5.277    3.823    5.277
 multiply_cannon_metrocomm1       38896 15.5    0.063    0.069    2.120    5.085
 -------------------------------------------------------------------------------

 The number of warnings for this run is : 2
 
 -------------------------------------------------------------------------------
  **** **** ******  **  PROGRAM ENDED AT                 2022-01-17 17:03:04.024
 ***** ** ***  *** **   PROGRAM RAN ON                                 nid002938
 **    ****   ******    PROGRAM RAN BY                                    hjudge
 ***** **    ** ** **   PROGRAM PROCESS ID                                178171
  **** **  *******  **  PROGRAM STOPPED IN /mnt/lustre/a2fs-work2/work/z19/z19/h
                                           judge/CUG/archer2/CPU/CP2K/H2O-512/4N
                                           ODES/128CPN/4THREADS
