 DBCSR| CPU Multiplication driver                                           BLAS
 DBCSR| Multrec recursion limit                                              512
 DBCSR| Multiplication stack size                                           1000
 DBCSR| Maximum elements for images                                    UNLIMITED
 DBCSR| Multiplicative factor virtual images                                   1
 DBCSR| Use multiplication densification                                       T
 DBCSR| Multiplication size stacks                                             3
 DBCSR| Use memory pool for CPU allocation                                     F
 DBCSR| Number of 3D layers                                               SINGLE
 DBCSR| Use MPI memory allocation                                              F
 DBCSR| Use RMA algorithm                                                      F
 DBCSR| Use Communication thread                                               T
 DBCSR| Communication thread load                                             75
 DBCSR| MPI: My node id                                                        0
 DBCSR| MPI: Number of nodes                                                 512
 DBCSR| OMP: Current number of threads                                         4
 DBCSR| OMP: Max number of threads                                             4
 DBCSR| Split modifier for TAS multiplication algorithm                  1.0E+00


  **** **** ******  **  PROGRAM STARTED AT               2022-01-20 10:43:26.679
 ***** ** ***  *** **   PROGRAM STARTED ON                             nid005779
 **    ****   ******    PROGRAM STARTED BY                                hjudge
 ***** **    ** ** **   PROGRAM PROCESS ID                                137021
  **** **  *******  **  PROGRAM STARTED IN /mnt/lustre/a2fs-work2/work/z19/z19/h
                                           judge/CUG/archer2/CPU/CP2K/H2O-512/16
                                           NODES/128CPN/4THREADS

 CP2K| version string:                                          CP2K version 8.2
 CP2K| source code revision number:                                  git:310b7ab
 CP2K| cp2kflags: omp libint fftw3 libxc elpa parallel mpi3 scalapack plumed2   
 CP2K| is freely available from                            https://www.cp2k.org/
 CP2K| Program compiled at                          Thu Dec  2 10:30:45 GMT 2021
 CP2K| Program compiled on                                                  ln02
 CP2K| Program compiled for                                              ARCHER2
 CP2K| Data directory path         /work/y07/shared/apps/core/cp2k/cp2k-8.2/data
 CP2K| Input file name                                               H2O-512.inp

 GLOBAL| Force Environment number                                              1
 GLOBAL| Basis set file name                                      GTH_BASIS_SETS
 GLOBAL| Potential file name                                           POTENTIAL
 GLOBAL| MM Potential file name                                     MM_POTENTIAL
 GLOBAL| Coordinate file name                                      __STD_INPUT__
 GLOBAL| Method name                                                        CP2K
 GLOBAL| Project name                                                    H2O-512
 GLOBAL| Run type                                                             MD
 GLOBAL| FFT library                                                       FFTW3
 GLOBAL| Diagonalization library                                            ELPA
 GLOBAL| Minimum number of eigenvectors for ELPA usage                        16
 GLOBAL| Orthonormality check for eigenvectors                          DISABLED
 GLOBAL| Matrix multiplication library                                    SCALAP
 GLOBAL| All-to-all communication in single precision                          F
 GLOBAL| FFTs using library dependent lengths                                  F
 GLOBAL| Grid backend                                                       AUTO
 GLOBAL| Global print level                                                  LOW
 GLOBAL| MPI I/O enabled                                                       T
 GLOBAL| Total number of message passing processes                           512
 GLOBAL| Number of threads for this process                                    4
 GLOBAL| This output is from process                                           0
 GLOBAL| CPU model name                          AMD EPYC 7742 64-Core Processor
 GLOBAL| CPUID                                                              1002

 MEMORY| system memory details [Kb]
 MEMORY|                        rank 0           min           max       average
 MEMORY| MemTotal            263528084     263528084     263528088     263528087
 MEMORY| MemFree             249949060     249303632     250659148     250105880
 MEMORY| Buffers                 35644         26624         35644         29216
 MEMORY| Cached                1041120        685208       1570972        969335
 MEMORY| Slab                  1629644       1545540       1629644       1592568
 MEMORY| SReclaimable            87480         80036         98812         88067
 MEMORY| MemLikelyFree       251113304     251000816     251454056     251192499


 GENERATE|  Preliminary Number of Bonds generated:                             0
 GENERATE|  Achieved consistency in connectivity generation.

 *******************************************************************************
 *******************************************************************************
 **                                                                           **
 **     #####                         ##              ##                      **
 **    ##   ##            ##          ##              ##                      **
 **   ##     ##                       ##            ######                    **
 **   ##     ##  ##   ##  ##   #####  ##  ##   ####   ##    #####    #####    **
 **   ##     ##  ##   ##  ##  ##      ## ##   ##      ##   ##   ##  ##   ##   **
 **   ##  ## ##  ##   ##  ##  ##      ####     ###    ##   ######   ######    **
 **    ##  ###   ##   ##  ##  ##      ## ##      ##   ##   ##       ##        **
 **     #######   #####   ##   #####  ##  ##  ####    ##    #####   ##        **
 **           ##                                                    ##        **
 **                                                                           **
 **                                                ... make the atoms dance   **
 **                                                                           **
 **            Copyright (C) by CP2K developers group (2000-2021)             **
 **                      J. Chem. Phys. 152, 194103 (2020)                    **
 **                                                                           **
 *******************************************************************************


 TOTAL NUMBERS AND MAXIMUM NUMBERS

  Total number of            - Atomic kinds:                                   2
                             - Atoms:                                       1536
                             - Shell sets:                                  3072
                             - Shells:                                      9216
                             - Primitive Cartesian functions:              10752
                             - Cartesian basis functions:                  21504
                             - Spherical basis functions:                  20480

  Maximum angular momentum of- Orbital basis functions:                        2
                             - Local part of the GTH pseudopotential:          2
                             - Non-local part of the GTH pseudopotential:      0


 SCF PARAMETERS         Density guess:                                    ATOMIC
                        --------------------------------------------------------
                        max_scf:                                              50
                        max_scf_history:                                       0
                        max_diis:                                              4
                        --------------------------------------------------------
                        eps_scf:                                        1.00E-05
                        eps_scf_history:                                0.00E+00
                        eps_diis:                                       1.00E-01
                        eps_eigval:                                     1.00E-05
                        --------------------------------------------------------
                        level_shift [a.u.]:                                 0.00
                        --------------------------------------------------------
                        No outer SCF

 MD_PAR| Molecular dynamics protocol (MD input parameters)
 MD_PAR| Ensemble type                                                       NVE
 MD_PAR| Number of time steps                                                 10
 MD_PAR| Time step [fs]                                                 0.500000
 MD_PAR| Temperature [K]                                              300.000000
 MD_PAR| Temperature tolerance [K]                                      0.000000
 MD_PAR| Print MD information every                                    1 step(s)
 MD_PAR| File type   Print frequency [steps]                          File names
 MD_PAR| Coordinates          1                                H2O-512-pos-1.xyz
 MD_PAR| Velocities           1                                H2O-512-vel-1.xyz
 MD_PAR| Energies             1                                   H2O-512-1.ener
 MD_PAR| Dump                20                                H2O-512-1.restart

 ROT| Rotational analysis information
 ROT| Principal axes and moments of inertia [a.u.]
 ROT|                           1                   2                   3
 ROT| Eigenvalues      6.12011925703E+09   6.17734003456E+09   6.32378668800E+09
 ROT|      x              0.229702356692      0.883899672739      0.407379670409
 ROT|      y              0.711719446246      0.132949289019     -0.689768016354
 ROT|      z              0.663846561462     -0.448381372362      0.598549820611
 ROT| Number of rotovibrational vectors                                        6

 DOF| Calculation of degrees of freedom
 DOF| Number of atoms                                                       1536
 DOF| Number of intramolecular constraints                                     0
 DOF| Number of intermolecular constraints                                     0
 DOF| Invariants (translations + rotations)                                    3
 DOF| Degrees of freedom                                                    4605

 DOF| Restraints information
 DOF| Number of intramolecular restraints                                      0
 DOF| Number of intermolecular restraints                                      0

 MD_VEL| Velocities initialization
 MD_VEL| Initial temperature [K]                                      300.000000
 MD_VEL| COM velocity             0.0000000000    -0.0000000000     0.0000000000

 Number of electrons:                                                       4096
 Number of occupied orbitals:                                               2048
 Number of molecular orbitals:                                              2048

 Number of orbital functions:                                              20480
 Number of independent orbital functions:                                  20480

 Extrapolation method: initial_guess


 SCF WAVEFUNCTION OPTIMIZATION

  ----------------------------------- OT ---------------------------------------
  Minimizer      : DIIS                : direct inversion
                                         in the iterative subspace
                                         using   7 DIIS vectors
                                         safer DIIS on
  Preconditioner : FULL_KINETIC        : inversion of T + eS
  Precond_solver : DEFAULT
  stepsize       :    0.15000000                  energy_gap     :    0.20000000
  eps_taylor     :   0.10000E-15                  max_taylor     :             4
  ----------------------------------- OT ---------------------------------------

  Step     Update method      Time    Convergence         Total energy    Change
  ------------------------------------------------------------------------------
     1 OT DIIS     0.15E+00    5.3     0.00467324     -8480.4728425690 -8.48E+03
     2 OT DIIS     0.15E+00    0.8     0.00318266     -8587.4488310143 -1.07E+02
     3 OT DIIS     0.15E+00    0.8     0.00347210     -8644.7931966768 -5.73E+01
     4 OT DIIS     0.15E+00    0.8     0.00204380     -8678.2157923836 -3.34E+01
     5 OT DIIS     0.15E+00    0.8     0.00148292     -8717.4624183879 -3.92E+01
     6 OT DIIS     0.15E+00    0.8     0.00119954     -8738.7795043572 -2.13E+01
     7 OT DIIS     0.15E+00    0.8     0.00099038     -8755.0185947301 -1.62E+01
     8 OT DIIS     0.15E+00    0.8     0.00079894     -8767.5347825454 -1.25E+01
     9 OT DIIS     0.15E+00    0.8     0.00061581     -8780.1862563834 -1.27E+01
    10 OT DIIS     0.15E+00    0.8     0.00048147     -8788.6147471043 -8.43E+00
    11 OT DIIS     0.15E+00    0.8     0.00038278     -8794.1215228889 -5.51E+00
    12 OT DIIS     0.15E+00    0.8     0.00031960     -8797.5363589594 -3.41E+00
    13 OT DIIS     0.15E+00    0.8     0.00026435     -8799.9344030908 -2.40E+00
    14 OT DIIS     0.15E+00    0.8     0.00023004     -8801.7089305035 -1.77E+00
    15 OT DIIS     0.15E+00    0.8     0.00019592     -8803.0697888564 -1.36E+00
    16 OT DIIS     0.15E+00    0.8     0.00016642     -8804.2000843411 -1.13E+00
    17 OT DIIS     0.15E+00    0.8     0.00014164     -8805.0506655806 -8.51E-01
    18 OT DIIS     0.15E+00    0.8     0.00012638     -8805.6725421207 -6.22E-01
    19 OT DIIS     0.15E+00    0.8     0.00010717     -8806.2171485645 -5.45E-01
    20 OT DIIS     0.15E+00    0.8     0.00009868     -8806.5290018963 -3.12E-01
    21 OT DIIS     0.15E+00    0.8     0.00008484     -8806.8772741195 -3.48E-01
    22 OT DIIS     0.15E+00    0.8     0.00007717     -8807.0943334427 -2.17E-01
    23 OT DIIS     0.15E+00    0.8     0.00006815     -8807.2974129499 -2.03E-01
    24 OT DIIS     0.15E+00    0.8     0.00006019     -8807.4529078233 -1.55E-01
    25 OT DIIS     0.15E+00    0.8     0.00005010     -8807.5989834234 -1.46E-01
    26 OT DIIS     0.15E+00    0.8     0.00004000     -8807.6989662228 -1.00E-01
    27 OT DIIS     0.15E+00    0.8     0.00003462     -8807.7827122401 -8.37E-02
    28 OT DIIS     0.15E+00    0.8     0.00003071     -8807.7824932500  2.19E-04
    29 OT DIIS     0.15E+00    0.8     0.00002690     -8807.8200993195 -3.76E-02
    30 OT DIIS     0.15E+00    0.8     0.00002500     -8807.8399634016 -1.99E-02
    31 OT DIIS     0.15E+00    0.8     0.00002395     -8807.8566460922 -1.67E-02
    32 OT DIIS     0.15E+00    0.8     0.00002328     -8807.8682689642 -1.16E-02
    33 OT DIIS     0.15E+00    0.8     0.00002304     -8807.8827275965 -1.45E-02
    34 OT DIIS     0.15E+00    0.8     0.00002300     -8807.8854890296 -2.76E-03
    35 OT SD       0.15E+00    0.8     0.00002301     -8807.8907467596 -5.26E-03
    36 OT SD       0.15E+00    0.8     0.00002308     -8807.8940817096 -3.33E-03
    37 OT SD       0.15E+00    0.8     0.00002318     -8807.8974407043 -3.36E-03
    38 OT SD       0.15E+00    0.8     0.00002329     -8807.9008284718 -3.39E-03
    39 OT SD       0.15E+00    0.8     0.00002341     -8807.9042491083 -3.42E-03
    40 OT SD       0.15E+00    0.8     0.00002354     -8807.9077063658 -3.46E-03
    41 OT SD       0.15E+00    0.8     0.00002369     -8807.9112037365 -3.50E-03
    42 OT SD       0.15E+00    0.8     0.00002384     -8807.9147444866 -3.54E-03
    43 OT SD       0.15E+00    0.8     0.00002400     -8807.9183316715 -3.59E-03
    44 OT SD       0.15E+00    0.8     0.00002417     -8807.9219681410 -3.64E-03
    45 OT DIIS     0.15E+00    0.8     0.00002435     -8807.9256565390 -3.69E-03
    46 OT DIIS     0.15E+00    0.8     0.00004964     -8807.9134340636  1.22E-02
    47 OT SD       0.15E+00    0.8     0.00005091     -8807.9142758545 -8.42E-04
    48 OT SD       0.15E+00    0.8     0.00004016     -8807.9285469909 -1.43E-02
    49 OT SD       0.15E+00    0.8     0.00003559     -8807.9380314111 -9.48E-03
    50 OT SD       0.15E+00    0.8     0.00003336     -8807.9457125088 -7.68E-03

  Leaving inner SCF loop after reaching    50 steps.


  Electronic density on regular grids:      -4096.0000074198       -0.0000074198
  Core density on regular grids:             4095.9999999927       -0.0000000073
  Total charge density on r-space grids:       -0.0000074271
  Total charge density g-space grids:          -0.0000074271

  Overlap energy of the core charge distribution:               0.00004500798551
  Self energy of the core charge distribution:             -22442.43995950839599
  Core Hamiltonian energy:                                   6603.78904353109556
  Hartree energy:                                            9161.23623542935638
  Exchange-correlation energy:                              -2130.53107696882216

  Total energy:                                             -8807.94571250878107

 *** WARNING in qs_scf.F:576 :: SCF run NOT converged ***


 ENERGY| Total FORCE_EVAL ( QS ) energy [a.u.]:            -8807.952577265223226

 MD_INI| MD initialization
 MD_INI| Potential energy [hartree]                          -0.880795257727E+04
 MD_INI| Kinetic energy [hartree]                             0.218747769838E+01
 MD_INI| Temperature [K]                                              300.000000
 MD_INI| Cell volume [bohr^3]                                 1.037187315243E+05
 MD_INI| Cell volume [ang^3]                                  1.536953010365E+04
 MD_INI| Cell lengths [bohr]      4.69842608E+01  4.69842608E+01  4.69842608E+01
 MD_INI| Cell lengths [ang]       2.48630000E+01  2.48630000E+01  2.48630000E+01
 MD_INI| Cell angles [deg]        9.00000000E+01  9.00000000E+01  9.00000000E+01

 Number of electrons:                                                       4096
 Number of occupied orbitals:                                               2048
 Number of molecular orbitals:                                              2048

 Number of orbital functions:                                              20480
 Number of independent orbital functions:                                  20480

 Extrapolation method: PS Nth order
 Extrapolation order:  0


 SCF WAVEFUNCTION OPTIMIZATION

  ----------------------------------- OT ---------------------------------------
  Minimizer      : DIIS                : direct inversion
                                         in the iterative subspace
                                         using   7 DIIS vectors
                                         safer DIIS on
  Preconditioner : FULL_KINETIC        : inversion of T + eS
  Precond_solver : DEFAULT
  stepsize       :    0.15000000                  energy_gap     :    0.20000000
  eps_taylor     :   0.10000E-15                  max_taylor     :             4
  ----------------------------------- OT ---------------------------------------

  Step     Update method      Time    Convergence         Total energy    Change
  ------------------------------------------------------------------------------
     1 OT DIIS     0.15E+00    2.2     0.00010167     -8807.9546260221 -8.81E+03
     2 OT DIIS     0.15E+00    0.6     0.00007400     -8808.0093761990 -5.48E-02
     3 OT DIIS     0.15E+00    0.6     0.00005493     -8808.0647670537 -5.54E-02
     4 OT DIIS     0.15E+00    0.6     0.00004934     -8808.1021850609 -3.74E-02
     5 OT DIIS     0.15E+00    0.8     0.00004590     -8808.1451196129 -4.29E-02
     6 OT DIIS     0.15E+00    0.8     0.00004348     -8808.1873204180 -4.22E-02
     7 OT DIIS     0.15E+00    0.8     0.00003910     -8808.2477013496 -6.04E-02
     8 OT DIIS     0.15E+00    0.8     0.00002828     -8808.3274888986 -7.98E-02
     9 OT DIIS     0.15E+00    0.8     0.00002025     -8808.3586939583 -3.12E-02
    10 OT DIIS     0.15E+00    0.8     0.00001287     -8808.3785438675 -1.98E-02
    11 OT DIIS     0.15E+00    0.8     0.00001026     -8808.3792698630 -7.26E-04
    12 OT DIIS     0.15E+00    0.8     0.00000704     -8808.3828071552 -3.54E-03

  *** SCF run converged in    12 steps ***


  Electronic density on regular grids:      -4096.0000079115       -0.0000079115
  Core density on regular grids:             4095.9999999916       -0.0000000084
  Total charge density on r-space grids:       -0.0000079198
  Total charge density g-space grids:          -0.0000079198

  Overlap energy of the core charge distribution:               0.00004378132445
  Self energy of the core charge distribution:             -22442.43995950839599
  Core Hamiltonian energy:                                   6601.18542836903907
  Hartree energy:                                            9162.93985524372147
  Exchange-correlation energy:                              -2130.06817504090941

  Total energy:                                             -8808.38280715521978

 ENERGY| Total FORCE_EVAL ( QS ) energy [a.u.]:            -8808.383483609235554

 MD| ***************************************************************************
 MD| Step number                                                               1
 MD| Time [fs]                                                          0.500000
 MD| Conserved quantity [hartree]                            -0.880615757265E+04
 MD| ---------------------------------------------------------------------------
 MD|                                          Instantaneous             Averages
 MD| CPU time per MD step [s]                     64.101481            64.101481
 MD| Energy drift per atom [K]          -0.806855801766E+02   0.000000000000E+00
 MD| Potential energy [hartree]         -0.880838348361E+04  -0.880838348361E+04
 MD| Kinetic energy [hartree]            0.222591095446E+01   0.222591095446E+01
 MD| Temperature [K]                             305.270900           305.270900
 MD| ***************************************************************************

 Number of electrons:                                                       4096
 Number of occupied orbitals:                                               2048
 Number of molecular orbitals:                                              2048

 Number of orbital functions:                                              20480
 Number of independent orbital functions:                                  20480

 Extrapolation method: PS Nth order
 Extrapolation order:  1


 SCF WAVEFUNCTION OPTIMIZATION

  ----------------------------------- OT ---------------------------------------
  Minimizer      : DIIS                : direct inversion
                                         in the iterative subspace
                                         using   7 DIIS vectors
                                         safer DIIS on
  Preconditioner : FULL_KINETIC        : inversion of T + eS
  Precond_solver : DEFAULT
  stepsize       :    0.15000000                  energy_gap     :    0.20000000
  eps_taylor     :   0.10000E-15                  max_taylor     :             4
  ----------------------------------- OT ---------------------------------------

  Step     Update method      Time    Convergence         Total energy    Change
  ------------------------------------------------------------------------------
     1 OT DIIS     0.15E+00    2.2     0.00008001     -8808.4313074394 -8.81E+03
     2 OT DIIS     0.15E+00    0.6     0.00005271     -8808.4637430373 -3.24E-02
     3 OT DIIS     0.15E+00    0.6     0.00003321     -8808.4886490329 -2.49E-02
     4 OT DIIS     0.15E+00    0.6     0.00002251     -8808.5029448772 -1.43E-02
     5 OT DIIS     0.15E+00    0.6     0.00001407     -8808.5119287291 -8.98E-03
     6 OT DIIS     0.15E+00    0.6     0.00000837     -8808.5159226179 -3.99E-03

  *** SCF run converged in     6 steps ***


  Electronic density on regular grids:      -4096.0000084065       -0.0000084065
  Core density on regular grids:             4095.9999999941       -0.0000000059
  Total charge density on r-space grids:       -0.0000084124
  Total charge density g-space grids:          -0.0000084124

  Overlap energy of the core charge distribution:               0.00003948980193
  Self energy of the core charge distribution:             -22442.43995950839599
  Core Hamiltonian energy:                                   6592.75633377219401
  Hartree energy:                                            9168.97934865938441
  Exchange-correlation energy:                              -2127.81168503089884

  Total energy:                                             -8808.51592261791302

 ENERGY| Total FORCE_EVAL ( QS ) energy [a.u.]:            -8808.517234268310858

 MD| ***************************************************************************
 MD| Step number                                                               2
 MD| Time [fs]                                                          1.000000
 MD| Conserved quantity [hartree]                            -0.880616181848E+04
 MD| ---------------------------------------------------------------------------
 MD|                                          Instantaneous             Averages
 MD| CPU time per MD step [s]                      5.969501            35.035491
 MD| Energy drift per atom [K]          -0.815584479855E+02  -0.407792239928E+02
 MD| Potential energy [hartree]         -0.880851723427E+04  -0.880845035894E+04
 MD| Kinetic energy [hartree]            0.235541578518E+01   0.229066336982E+01
 MD| Temperature [K]                             323.031744           314.151322
 MD| ***************************************************************************

 Number of electrons:                                                       4096
 Number of occupied orbitals:                                               2048
 Number of molecular orbitals:                                              2048

 Number of orbital functions:                                              20480
 Number of independent orbital functions:                                  20480

 Extrapolation method: PS Nth order
 Extrapolation order:  2


 SCF WAVEFUNCTION OPTIMIZATION

  ----------------------------------- OT ---------------------------------------
  Minimizer      : DIIS                : direct inversion
                                         in the iterative subspace
                                         using   7 DIIS vectors
                                         safer DIIS on
  Preconditioner : FULL_KINETIC        : inversion of T + eS
  Precond_solver : DEFAULT
  stepsize       :    0.15000000                  energy_gap     :    0.20000000
  eps_taylor     :   0.10000E-15                  max_taylor     :             4
  ----------------------------------- OT ---------------------------------------

  Step     Update method      Time    Convergence         Total energy    Change
  ------------------------------------------------------------------------------
     1 OT DIIS     0.15E+00    2.3     0.00008986     -8808.3717655930 -8.81E+03
     2 OT DIIS     0.15E+00    0.5     0.00007426     -8808.4174484026 -4.57E-02
     3 OT DIIS     0.15E+00    0.6     0.00005875     -8808.4861981985 -6.87E-02
     4 OT DIIS     0.15E+00    0.5     0.00004979     -8808.5436768397 -5.75E-02
     5 OT DIIS     0.15E+00    0.6     0.00004006     -8808.6033812805 -5.97E-02
     6 OT DIIS     0.15E+00    0.8     0.00002840     -8808.6545525357 -5.12E-02
     7 OT DIIS     0.15E+00    0.8     0.00001854     -8808.6820971649 -2.75E-02
     8 OT DIIS     0.15E+00    0.8     0.00001252     -8808.6920684022 -9.97E-03
     9 OT DIIS     0.15E+00    0.8     0.00000891     -8808.6959102684 -3.84E-03

  *** SCF run converged in     9 steps ***


  Electronic density on regular grids:      -4096.0000081507       -0.0000081507
  Core density on regular grids:             4095.9999999985       -0.0000000015
  Total charge density on r-space grids:       -0.0000081522
  Total charge density g-space grids:          -0.0000081522

  Overlap energy of the core charge distribution:               0.00003222727978
  Self energy of the core charge distribution:             -22442.43995950839599
  Core Hamiltonian energy:                                   6579.97333149528004
  Hartree energy:                                            9178.11110402593113
  Exchange-correlation energy:                              -2124.34041850849007

  Total energy:                                             -8808.69591026839771

 ENERGY| Total FORCE_EVAL ( QS ) energy [a.u.]:            -8808.697758161622914

 MD| ***************************************************************************
 MD| Step number                                                               3
 MD| Time [fs]                                                          1.500000
 MD| Conserved quantity [hartree]                            -0.880616479814E+04
 MD| ---------------------------------------------------------------------------
 MD|                                          Instantaneous             Averages
 MD| CPU time per MD step [s]                      8.530249            26.200410
 MD| Energy drift per atom [K]          -0.821710128390E+02  -0.545764869415E+02
 MD| Potential energy [hartree]         -0.880869775816E+04  -0.880853282535E+04
 MD| Kinetic energy [hartree]            0.253296002315E+01   0.237142892093E+01
 MD| Temperature [K]                             347.380916           325.227853
 MD| ***************************************************************************

 Number of electrons:                                                       4096
 Number of occupied orbitals:                                               2048
 Number of molecular orbitals:                                              2048

 Number of orbital functions:                                              20480
 Number of independent orbital functions:                                  20480

 Extrapolation method: PS Nth order
 Extrapolation order:  3


 SCF WAVEFUNCTION OPTIMIZATION

  ----------------------------------- OT ---------------------------------------
  Minimizer      : DIIS                : direct inversion
                                         in the iterative subspace
                                         using   7 DIIS vectors
                                         safer DIIS on
  Preconditioner : FULL_KINETIC        : inversion of T + eS
  Precond_solver : DEFAULT
  stepsize       :    0.15000000                  energy_gap     :    0.20000000
  eps_taylor     :   0.10000E-15                  max_taylor     :             4
  ----------------------------------- OT ---------------------------------------

  Step     Update method      Time    Convergence         Total energy    Change
  ------------------------------------------------------------------------------
     1 OT DIIS     0.15E+00    2.2     0.00008300     -8808.7600999818 -8.81E+03
     2 OT DIIS     0.15E+00    0.6     0.00005686     -8808.7956178889 -3.55E-02
     3 OT DIIS     0.15E+00    0.6     0.00003614     -8808.8258128597 -3.02E-02
     4 OT DIIS     0.15E+00    0.6     0.00002270     -8808.8440338755 -1.82E-02
     5 OT DIIS     0.15E+00    0.5     0.00001489     -8808.8523327299 -8.30E-03
     6 OT DIIS     0.15E+00    0.5     0.00000969     -8808.8563576274 -4.02E-03

  *** SCF run converged in     6 steps ***


  Electronic density on regular grids:      -4096.0000085822       -0.0000085822
  Core density on regular grids:             4096.0000000009        0.0000000009
  Total charge density on r-space grids:       -0.0000085814
  Total charge density g-space grids:          -0.0000085814

  Overlap energy of the core charge distribution:               0.00002346615614
  Self energy of the core charge distribution:             -22442.43995950839599
  Core Hamiltonian energy:                                   6564.27159035985005
  Hartree energy:                                            9189.38285782755702
  Exchange-correlation energy:                              -2120.07086977257768

  Total energy:                                             -8808.85635762741003

 ENERGY| Total FORCE_EVAL ( QS ) energy [a.u.]:            -8808.858123737863934

 MD| ***************************************************************************
 MD| Step number                                                               4
 MD| Time [fs]                                                          2.000000
 MD| Conserved quantity [hartree]                            -0.880616980120E+04
 MD| ---------------------------------------------------------------------------
 MD|                                          Instantaneous             Averages
 MD| CPU time per MD step [s]                      6.076429            21.169415
 MD| Energy drift per atom [K]          -0.831995539981E+02  -0.617322537056E+02
 MD| Potential energy [hartree]         -0.880885812374E+04  -0.880861414994E+04
 MD| Kinetic energy [hartree]            0.268832254031E+01   0.245065232578E+01
 MD| Temperature [K]                             368.687993           336.092888
 MD| ***************************************************************************

 Number of electrons:                                                       4096
 Number of occupied orbitals:                                               2048
 Number of molecular orbitals:                                              2048

 Number of orbital functions:                                              20480
 Number of independent orbital functions:                                  20480

 Extrapolation method: PS Nth order
 Extrapolation order:  3


 SCF WAVEFUNCTION OPTIMIZATION

  ----------------------------------- OT ---------------------------------------
  Minimizer      : DIIS                : direct inversion
                                         in the iterative subspace
                                         using   7 DIIS vectors
                                         safer DIIS on
  Preconditioner : FULL_KINETIC        : inversion of T + eS
  Precond_solver : DEFAULT
  stepsize       :    0.15000000                  energy_gap     :    0.20000000
  eps_taylor     :   0.10000E-15                  max_taylor     :             4
  ----------------------------------- OT ---------------------------------------

  Step     Update method      Time    Convergence         Total energy    Change
  ------------------------------------------------------------------------------
     1 OT DIIS     0.15E+00    2.2     0.00005398     -8808.8521915363 -8.81E+03
     2 OT DIIS     0.15E+00    0.6     0.00004360     -8808.8685917285 -1.64E-02
     3 OT DIIS     0.15E+00    0.8     0.00002876     -8808.8948197848 -2.62E-02
     4 OT DIIS     0.15E+00    0.8     0.00002104     -8808.9082117929 -1.34E-02
     5 OT DIIS     0.15E+00    0.8     0.00001317     -8808.9185193067 -1.03E-02
     6 OT DIIS     0.15E+00    0.8     0.00000843     -8808.9223714263 -3.85E-03

  *** SCF run converged in     6 steps ***


  Electronic density on regular grids:      -4096.0000071800       -0.0000071800
  Core density on regular grids:             4095.9999999999       -0.0000000001
  Total charge density on r-space grids:       -0.0000071801
  Total charge density g-space grids:          -0.0000071801

  Overlap energy of the core charge distribution:               0.00001548085097
  Self energy of the core charge distribution:             -22442.43995950839599
  Core Hamiltonian energy:                                   6547.40962372306421
  Hartree energy:                                            9201.58656193881325
  Exchange-correlation energy:                              -2115.47861306067352

  Total energy:                                             -8808.92237142634076

 ENERGY| Total FORCE_EVAL ( QS ) energy [a.u.]:            -8808.923934600163193

 MD| ***************************************************************************
 MD| Step number                                                               5
 MD| Time [fs]                                                          2.500000
 MD| Conserved quantity [hartree]                            -0.880617228915E+04
 MD| ---------------------------------------------------------------------------
 MD|                                          Instantaneous             Averages
 MD| CPU time per MD step [s]                      7.051064            18.345745
 MD| Energy drift per atom [K]          -0.837110335749E+02  -0.661280096795E+02
 MD| Potential energy [hartree]         -0.880892393460E+04  -0.880867610688E+04
 MD| Kinetic energy [hartree]            0.275164544915E+01   0.251085095045E+01
 MD| Temperature [K]                             377.372366           344.348784
 MD| ***************************************************************************

 Number of electrons:                                                       4096
 Number of occupied orbitals:                                               2048
 Number of molecular orbitals:                                              2048

 Number of orbital functions:                                              20480
 Number of independent orbital functions:                                  20480

 Extrapolation method: PS Nth order
 Extrapolation order:  3


 SCF WAVEFUNCTION OPTIMIZATION

  ----------------------------------- OT ---------------------------------------
  Minimizer      : DIIS                : direct inversion
                                         in the iterative subspace
                                         using   7 DIIS vectors
                                         safer DIIS on
  Preconditioner : FULL_KINETIC        : inversion of T + eS
  Precond_solver : DEFAULT
  stepsize       :    0.15000000                  energy_gap     :    0.20000000
  eps_taylor     :   0.10000E-15                  max_taylor     :             4
  ----------------------------------- OT ---------------------------------------

  Step     Update method      Time    Convergence         Total energy    Change
  ------------------------------------------------------------------------------
     1 OT DIIS     0.15E+00    2.3     0.00004459     -8808.8152217936 -8.81E+03
     2 OT DIIS     0.15E+00    0.6     0.00003657     -8808.8265180336 -1.13E-02
     3 OT DIIS     0.15E+00    0.6     0.00002088     -8808.8466704973 -2.02E-02
     4 OT DIIS     0.15E+00    0.6     0.00001309     -8808.8539215321 -7.25E-03
     5 OT DIIS     0.15E+00    0.6     0.00000884     -8808.8567199651 -2.80E-03

  *** SCF run converged in     5 steps ***


  Electronic density on regular grids:      -4096.0000062624       -0.0000062624
  Core density on regular grids:             4095.9999999983       -0.0000000017
  Total charge density on r-space grids:       -0.0000062642
  Total charge density g-space grids:          -0.0000062642

  Overlap energy of the core charge distribution:               0.00000971626234
  Self energy of the core charge distribution:             -22442.43995950839599
  Core Hamiltonian energy:                                   6531.17274267598259
  Hartree energy:                                            9213.44167500625008
  Exchange-correlation energy:                              -2111.03118785517381

  Total energy:                                             -8808.85671996507517

 ENERGY| Total FORCE_EVAL ( QS ) energy [a.u.]:            -8808.858095933899676

 MD| ***************************************************************************
 MD| Step number                                                               6
 MD| Time [fs]                                                          3.000000
 MD| Conserved quantity [hartree]                            -0.880617011302E+04
 MD| ---------------------------------------------------------------------------
 MD|                                          Instantaneous             Averages
 MD| CPU time per MD step [s]                      5.495769            16.204082
 MD| Energy drift per atom [K]          -0.832636590125E+02  -0.689839512350E+02
 MD| Potential energy [hartree]         -0.880885809593E+04  -0.880870643839E+04
 MD| Kinetic energy [hartree]            0.268798291492E+01   0.254037294453E+01
 MD| Temperature [K]                             368.641415           348.397556
 MD| ***************************************************************************

 Number of electrons:                                                       4096
 Number of occupied orbitals:                                               2048
 Number of molecular orbitals:                                              2048

 Number of orbital functions:                                              20480
 Number of independent orbital functions:                                  20480

 Extrapolation method: PS Nth order
 Extrapolation order:  3


 SCF WAVEFUNCTION OPTIMIZATION

  ----------------------------------- OT ---------------------------------------
  Minimizer      : DIIS                : direct inversion
                                         in the iterative subspace
                                         using   7 DIIS vectors
                                         safer DIIS on
  Preconditioner : FULL_KINETIC        : inversion of T + eS
  Precond_solver : DEFAULT
  stepsize       :    0.15000000                  energy_gap     :    0.20000000
  eps_taylor     :   0.10000E-15                  max_taylor     :             4
  ----------------------------------- OT ---------------------------------------

  Step     Update method      Time    Convergence         Total energy    Change
  ------------------------------------------------------------------------------
     1 OT DIIS     0.15E+00    2.2     0.00004551     -8808.6384770521 -8.81E+03
     2 OT DIIS     0.15E+00    0.6     0.00003729     -8808.6502439177 -1.18E-02
     3 OT DIIS     0.15E+00    0.5     0.00002023     -8808.6710752148 -2.08E-02
     4 OT DIIS     0.15E+00    0.5     0.00001308     -8808.6771447301 -6.07E-03
     5 OT DIIS     0.15E+00    0.6     0.00000755     -8808.6802139939 -3.07E-03

  *** SCF run converged in     5 steps ***


  Electronic density on regular grids:      -4096.0000050933       -0.0000050933
  Core density on regular grids:             4095.9999999989       -0.0000000011
  Total charge density on r-space grids:       -0.0000050945
  Total charge density g-space grids:          -0.0000050945

  Overlap energy of the core charge distribution:               0.00000622092346
  Self energy of the core charge distribution:             -22442.43995950839599
  Core Hamiltonian energy:                                   6517.03118113811433
  Hartree energy:                                            9223.86272627086510
  Exchange-correlation energy:                              -2107.13416811542356

  Total energy:                                             -8808.68021399391728

 ENERGY| Total FORCE_EVAL ( QS ) energy [a.u.]:            -8808.681147542156396

 MD| ***************************************************************************
 MD| Step number                                                               7
 MD| Time [fs]                                                          3.500000
 MD| Conserved quantity [hartree]                            -0.880616595717E+04
 MD| ---------------------------------------------------------------------------
 MD|                                          Instantaneous             Averages
 MD| CPU time per MD step [s]                      5.469909            14.670629
 MD| Energy drift per atom [K]          -0.824092887712E+02  -0.709018565973E+02
 MD| Potential energy [hartree]         -0.880868114754E+04  -0.880870282541E+04
 MD| Kinetic energy [hartree]            0.251519037514E+01   0.253677543462E+01
 MD| Temperature [K]                             344.943911           347.904178
 MD| ***************************************************************************

 Number of electrons:                                                       4096
 Number of occupied orbitals:                                               2048
 Number of molecular orbitals:                                              2048

 Number of orbital functions:                                              20480
 Number of independent orbital functions:                                  20480

 Extrapolation method: PS Nth order
 Extrapolation order:  3


 SCF WAVEFUNCTION OPTIMIZATION

  ----------------------------------- OT ---------------------------------------
  Minimizer      : DIIS                : direct inversion
                                         in the iterative subspace
                                         using   7 DIIS vectors
                                         safer DIIS on
  Preconditioner : FULL_KINETIC        : inversion of T + eS
  Precond_solver : DEFAULT
  stepsize       :    0.15000000                  energy_gap     :    0.20000000
  eps_taylor     :   0.10000E-15                  max_taylor     :             4
  ----------------------------------- OT ---------------------------------------

  Step     Update method      Time    Convergence         Total energy    Change
  ------------------------------------------------------------------------------
     1 OT DIIS     0.15E+00    2.2     0.00004639     -8808.4083532094 -8.81E+03
     2 OT DIIS     0.15E+00    0.5     0.00003771     -8808.4205214782 -1.22E-02
     3 OT DIIS     0.15E+00    0.6     0.00002094     -8808.4409407538 -2.04E-02
     4 OT DIIS     0.15E+00    0.6     0.00001360     -8808.4479497143 -7.01E-03
     5 OT DIIS     0.15E+00    0.6     0.00001073     -8808.4504245656 -2.47E-03
     6 OT DIIS     0.15E+00    0.6     0.00000737     -8808.4530065464 -2.58E-03

  *** SCF run converged in     6 steps ***


  Electronic density on regular grids:      -4096.0000038468       -0.0000038468
  Core density on regular grids:             4096.0000000008        0.0000000008
  Total charge density on r-space grids:       -0.0000038459
  Total charge density g-space grids:          -0.0000038459

  Overlap energy of the core charge distribution:               0.00000436187245
  Self energy of the core charge distribution:             -22442.43995950839599
  Core Hamiltonian energy:                                   6506.06509163055489
  Hartree energy:                                            9232.01158736883735
  Exchange-correlation energy:                              -2104.08973039926559

  Total energy:                                             -8808.45300654639868

 ENERGY| Total FORCE_EVAL ( QS ) energy [a.u.]:            -8808.454571180478524

 MD| ***************************************************************************
 MD| Step number                                                               8
 MD| Time [fs]                                                          4.000000
 MD| Conserved quantity [hartree]                            -0.880616115027E+04
 MD| ---------------------------------------------------------------------------
 MD|                                          Instantaneous             Averages
 MD| CPU time per MD step [s]                      6.049380            13.592973
 MD| Energy drift per atom [K]          -0.814210746031E+02  -0.722167588480E+02
 MD| Potential energy [hartree]         -0.880845457118E+04  -0.880867179363E+04
 MD| Kinetic energy [hartree]            0.229342091285E+01   0.250635611939E+01
 MD| Temperature [K]                             314.529503           343.732344
 MD| ***************************************************************************

 Number of electrons:                                                       4096
 Number of occupied orbitals:                                               2048
 Number of molecular orbitals:                                              2048

 Number of orbital functions:                                              20480
 Number of independent orbital functions:                                  20480

 Extrapolation method: PS Nth order
 Extrapolation order:  3


 SCF WAVEFUNCTION OPTIMIZATION

  ----------------------------------- OT ---------------------------------------
  Minimizer      : DIIS                : direct inversion
                                         in the iterative subspace
                                         using   7 DIIS vectors
                                         safer DIIS on
  Preconditioner : FULL_KINETIC        : inversion of T + eS
  Precond_solver : DEFAULT
  stepsize       :    0.15000000                  energy_gap     :    0.20000000
  eps_taylor     :   0.10000E-15                  max_taylor     :             4
  ----------------------------------- OT ---------------------------------------

  Step     Update method      Time    Convergence         Total energy    Change
  ------------------------------------------------------------------------------
     1 OT DIIS     0.15E+00    2.2     0.00004050     -8808.2146977162 -8.81E+03
     2 OT DIIS     0.15E+00    0.6     0.00003407     -8808.2241591968 -9.46E-03
     3 OT DIIS     0.15E+00    0.6     0.00001718     -8808.2450179211 -2.09E-02
     4 OT DIIS     0.15E+00    0.6     0.00001245     -8808.2495172279 -4.50E-03
     5 OT DIIS     0.15E+00    0.6     0.00000891     -8808.2522161014 -2.70E-03

  *** SCF run converged in     5 steps ***


  Electronic density on regular grids:      -4096.0000022243       -0.0000022243
  Core density on regular grids:             4096.0000000016        0.0000000016
  Total charge density on r-space grids:       -0.0000022227
  Total charge density g-space grids:          -0.0000022227

  Overlap energy of the core charge distribution:               0.00000353692302
  Self energy of the core charge distribution:             -22442.43995950839599
  Core Hamiltonian energy:                                   6498.75942591236708
  Hartree energy:                                            9237.49748475191518
  Exchange-correlation energy:                              -2102.06917079417235

  Total energy:                                             -8808.25221610136214

 ENERGY| Total FORCE_EVAL ( QS ) energy [a.u.]:            -8808.253873562987792

 MD| ***************************************************************************
 MD| Step number                                                               9
 MD| Time [fs]                                                          4.500000
 MD| Conserved quantity [hartree]                            -0.880615635517E+04
 MD| ---------------------------------------------------------------------------
 MD|                                          Instantaneous             Averages
 MD| CPU time per MD step [s]                      5.481438            12.691691
 MD| Energy drift per atom [K]          -0.804352861533E+02  -0.731299285486E+02
 MD| Potential energy [hartree]         -0.880825387356E+04  -0.880862535807E+04
 MD| Kinetic energy [hartree]            0.209751839550E+01   0.246092970563E+01
 MD| Temperature [K]                             287.662598           337.502372
 MD| ***************************************************************************

 Number of electrons:                                                       4096
 Number of occupied orbitals:                                               2048
 Number of molecular orbitals:                                              2048

 Number of orbital functions:                                              20480
 Number of independent orbital functions:                                  20480

 Extrapolation method: PS Nth order
 Extrapolation order:  3


 SCF WAVEFUNCTION OPTIMIZATION

  ----------------------------------- OT ---------------------------------------
  Minimizer      : DIIS                : direct inversion
                                         in the iterative subspace
                                         using   7 DIIS vectors
                                         safer DIIS on
  Preconditioner : FULL_KINETIC        : inversion of T + eS
  Precond_solver : DEFAULT
  stepsize       :    0.15000000                  energy_gap     :    0.20000000
  eps_taylor     :   0.10000E-15                  max_taylor     :             4
  ----------------------------------- OT ---------------------------------------

  Step     Update method      Time    Convergence         Total energy    Change
  ------------------------------------------------------------------------------
     1 OT DIIS     0.15E+00    2.3     0.00004012     -8808.1037292255 -8.81E+03
     2 OT DIIS     0.15E+00    0.6     0.00003342     -8808.1129261087 -9.20E-03
     3 OT DIIS     0.15E+00    0.6     0.00002048     -8808.1296917394 -1.68E-02
     4 OT DIIS     0.15E+00    0.6     0.00001263     -8808.1379699672 -8.28E-03
     5 OT DIIS     0.15E+00    0.6     0.00001017     -8808.1402112436 -2.24E-03
     6 OT DIIS     0.15E+00    0.6     0.00000715     -8808.1425468983 -2.34E-03

  *** SCF run converged in     6 steps ***


  Electronic density on regular grids:      -4096.0000006753       -0.0000006753
  Core density on regular grids:             4096.0000000007        0.0000000007
  Total charge density on r-space grids:       -0.0000006745
  Total charge density g-space grids:          -0.0000006745

  Overlap energy of the core charge distribution:               0.00000340787709
  Self energy of the core charge distribution:             -22442.43995950839599
  Core Hamiltonian energy:                                   6495.52246706897495
  Hartree energy:                                            9239.94935657077076
  Exchange-correlation energy:                              -2101.17441443753887

  Total energy:                                             -8808.14254689831250

 ENERGY| Total FORCE_EVAL ( QS ) energy [a.u.]:            -8808.143947953234601

 MD| ***************************************************************************
 MD| Step number                                                              10
 MD| Time [fs]                                                          5.000000
 MD| Conserved quantity [hartree]                            -0.880615520774E+04
 MD| ---------------------------------------------------------------------------
 MD|                                          Instantaneous             Averages
 MD| CPU time per MD step [s]                      6.152232            12.037745
 MD| Energy drift per atom [K]          -0.801993954150E+02  -0.738368752353E+02
 MD| Potential energy [hartree]         -0.880814394795E+04  -0.880857721705E+04
 MD| Kinetic energy [hartree]            0.198874021217E+01   0.241371075628E+01
 MD| Temperature [K]                             272.744295           331.026564
 MD| ***************************************************************************

 -------------------------------------------------------------------------------
 -                                                                             -
 -                                DBCSR STATISTICS                             -
 -                                                                             -
 -------------------------------------------------------------------------------
 COUNTER                                    TOTAL       BLAS       SMM       ACC
 flops     9 x    32 x    32          13287555072     100.0%      0.0%      0.0%
 flops    22 x    32 x    32          16240345088     100.0%      0.0%      0.0%
 flops   280 x    64 x    64        1310636113920     100.0%      0.0%      0.0%
 flops   316 x    64 x    64        1479146471424     100.0%      0.0%      0.0%
 flops   342 x    64 x    64        1600848396288     100.0%      0.0%      0.0%
 flops   369 x    64 x    64        1727231164416     100.0%      0.0%      0.0%
 flops   382 x    64 x    64        1788082126848     100.0%      0.0%      0.0%
 flops    64 x    64 x    64        1808181231616     100.0%      0.0%      0.0%
 flops   262 x    64 x    64        2452761870336     100.0%      0.0%      0.0%
 flops   298 x    64 x    64        2789782585344     100.0%      0.0%      0.0%
 flops   280 x    64 x   640        2982989004800     100.0%      0.0%      0.0%
 flops   316 x    64 x   640        3366516162560     100.0%      0.0%      0.0%
 flops   240 x    64 x    64        3370207150080     100.0%      0.0%      0.0%
 flops   342 x    64 x   640        3643507998720     100.0%      0.0%      0.0%
 flops   271 x    64 x    64        3805525573632     100.0%      0.0%      0.0%
 flops   369 x    64 x   640        3931153367040     100.0%      0.0%      0.0%
 flops   382 x    64 x   640        4069649285120     100.0%      0.0%      0.0%
 flops   338 x    64 x    64        4746375069696     100.0%      0.0%      0.0%
 flops   360 x    64 x    64        5055310725120     100.0%      0.0%      0.0%
 flops   262 x    64 x   640        5582450851840     100.0%      0.0%      0.0%
 flops     9 x     9 x    64        5648350040064     100.0%      0.0%      0.0%
 flops   298 x    64 x   640        6349505167360     100.0%      0.0%      0.0%
 flops   240 x    64 x   640        7670543155200     100.0%      0.0%      0.0%
 flops     9 x    22 x    64        7855827369984     100.0%      0.0%      0.0%
 flops    22 x     9 x    64        7866447519744     100.0%      0.0%      0.0%
 flops   249 x    64 x    64        8158709809152     100.0%      0.0%      0.0%
 flops   271 x    64 x   640        8661321646080     100.0%      0.0%      0.0%
 flops    64 x    64 x   640        9728100925440     100.0%      0.0%      0.0%
 flops   320 x    64 x    64       10485088911360     100.0%      0.0%      0.0%
 flops   338 x    64 x   640       10802681610240     100.0%      0.0%      0.0%
 flops    22 x    22 x    64       11004752822272     100.0%      0.0%      0.0%
 flops   360 x    64 x   640       11505814732800     100.0%      0.0%      0.0%
 flops    32 x    64 x    64       12657268621312     100.0%      0.0%      0.0%
 flops   351 x    64 x    64       13143807885312     100.0%      0.0%      0.0%
 flops   329 x    64 x    64       18479969206272     100.0%      0.0%      0.0%
 flops   249 x    64 x   640       18569106554880     100.0%      0.0%      0.0%
 flops     9 x    32 x     9       23722505551872     100.0%      0.0%      0.0%
 flops   320 x    64 x   640       23863912038400     100.0%      0.0%      0.0%
 flops   351 x    64 x   640       29915118305280     100.0%      0.0%      0.0%
 flops    22 x    32 x     9       33153656684544     100.0%      0.0%      0.0%
 flops     9 x    32 x    22       33153656684544     100.0%      0.0%      0.0%
 flops   329 x    64 x   640       42060144967680     100.0%      0.0%      0.0%
 flops    22 x    32 x    22       46115724689408     100.0%      0.0%      0.0%
 flops    32 x    64 x   640       68096706478080     100.0%      0.0%      0.0%
 flops inhomo. stacks              50680110776320     100.0%      0.0%      0.0%
 flops total                       574.888715E+12     100.0%      0.0%      0.0%
 flops max/rank                      1.133443E+12     100.0%      0.0%      0.0%
 matmuls inhomo. stacks                   6312960     100.0%      0.0%      0.0%
 matmuls total                        12765755520     100.0%      0.0%      0.0%
 number of processed stacks             236957376     100.0%      0.0%      0.0%
 average stack size                                    53.9       0.0       0.0
 marketing flops                     1.147134E+15
 -------------------------------------------------------------------------------
 # multiplications                           2431
 max memory usage/rank             378.421248E+06
 # max total images/rank                        2
 # max 3D layers                                1
 # MPI messages exchanged                75924992
 MPI messages size (bytes):
  total size                        40.178769E+12
  min size                           0.000000E+00
  max size                           6.553600E+06
  average size                     529.190312E+03
 MPI breakdown and total messages size (bytes):
             size <=      128              507232                        0
       128 < size <=     8192                   0                        0
      8192 < size <=    32768            21509280             704729579520
     32768 < size <=   131072            13364224             875837784064
    131072 < size <=  4194304            38528512           25387824241184
   4194304 < size <= 16777216             2015744           13210379878400
  16777216 < size                               0                        0
 -------------------------------------------------------------------------------

 *** WARNING in dbcsr_mm.F:294 :: Using a non-square number of MPI ranks ***
 *** might lead to poor performance. Used ranks: 512 Suggested: 529 1024 ***

 -------------------------------------------------------------------------------
 -                                                                             -
 -                      DBCSR MESSAGE PASSING PERFORMANCE                      -
 -                                                                             -
 -------------------------------------------------------------------------------
 ROUTINE             CALLS      AVE VOLUME [Bytes]
 MP_Bcast               45                     12.
 MP_Allreduce        13019                     67.
 MP_Alltoall          9270                 395450.
 MP_ISend           308916                 257602.
 MP_IRecv           308916                 257664.
 -------------------------------------------------------------------------------

 -------------------------------------------------------------------------------
 -                                                                             -
 -                                GRID STATISTICS                              -
 -                                                                             -
 -------------------------------------------------------------------------------
 LP    KERNEL             BACKEND                              COUNT     PERCENT
 1     collocate ortho    REF                              135745301      20.79%
 1     integrate ortho    REF                              130493488      19.98%
 2     integrate ortho    REF                               88995618      13.63%
 2     collocate ortho    REF                               84560451      12.95%
 0     collocate ortho    REF                               75171698      11.51%
 0     integrate ortho    REF                               68664071      10.51%
 3     integrate ortho    REF                               26282166       4.02%
 3     collocate ortho    REF                               20755016       3.18%
 0     collocate general  REF                                8650752       1.32%
 1     integrate general  REF                                8650752       1.32%
 4     integrate ortho    REF                                3293394       0.50%
 4     collocate ortho    REF                                1638196       0.25%
 5     integrate ortho    REF                                 141925       0.02%
 -------------------------------------------------------------------------------

 MEMORY| Estimated peak process memory [MiB]                                 361

 -------------------------------------------------------------------------------
 -                                                                             -
 -                         MESSAGE PASSING PERFORMANCE                         -
 -                                                                             -
 -------------------------------------------------------------------------------

 ROUTINE             CALLS      AVE VOLUME [Bytes]
 MP_Group                4
 MP_Bcast             4017                  57942.
 MP_Allreduce        11016                   1385.
 MP_Sync              1660
 MP_Alltoall          2222
 MP_ISendRecv       259588                   8208.
 MP_Wait            272938
 MP_comm_split          66
 MP_ISend            31042                  40481.
 MP_IRecv            31042                  40481.
 -------------------------------------------------------------------------------


 -------------------------------------------------------------------------------
 -                                                                             -
 -                           R E F E R E N C E S                               -
 -                                                                             -
 -------------------------------------------------------------------------------
 
 CP2K version 8.2, the CP2K developers group (2021).
 CP2K is freely available from https://www.cp2k.org/ .

 Kuehne,Thomas D.; Iannuzzi,Marcella; Del Ben,Mauro;
 Rybkin,Vladimir V.; Seewald,Patrick; Stein,Frederick; Laino,Teodoro;
 Khaliullin,Rustam Z.; Schuett,Ole; Schiffmann,Florian; Golze,Dorothea;
 Wilhelm,Jan; Chulkov,Sergey; Bani-Hashemian,Mohammad Hossein;
 Weber,Valery; Borstnik,Urban; Taillefumier,Mathieu;
 Jakobovits,Alice Shoshana; Lazzaro,Alfio; Pabst,Hans; Mueller,Tiziano;
 Schade,Robert; Guidon,Manuel; Andermatt,Samuel; Holmberg,Nico;
 Schenter,Gregory K.; Hehn,Anna; Bussy,Augustin; Belleflamme,Fabian;
 Tabacchi,Gloria; Gloess,Andreas; Lass,Michael; Bethune,Iain;
 Mundy,Christopher J.; Plessl,Christian; Watkins,Matt;
 VandeVondele,Joost; Krack,Matthias; Hutter,Juerg. 
 The Journal of Chemical Physics, 152 (19), (2020). 
 CP2K: An electronic structure and molecular dynamics software package -
 Quickstep: Efficient and accurate electronic structure calculations.
 https://doi.org/10.1063/5.0007045

 Schuett, Ole; Messmer, Peter; Hutter, Juerg; VandeVondele, Joost. 
 Electronic Structure Calculations on Graphics Processing Units, John
 Wiley & Sons, Ltd, 173-190 (2016). 
 GPU-Accelerated Sparse Matrix-Matrix Multiplication for
 Linear Scaling Density Functional Theory.
 https://doi.org/10.1002/9781118670712.ch8

 Borstnik, U; VandeVondele, J; Weber, V; Hutter, J. 
 PARALLEL COMPUTING, 40 (5-6), 47-58 (2014). 
 Sparse matrix multiplication: The distributed block-compressed sparse
 row library.
 https://doi.org/10.1016/j.parco.2014.03.012

 Hutter, J; Iannuzzi, M; Schiffmann, F; VandeVondele, J. 
 WIREs Comput Mol Sci., 4 (1), 15-25 (2014). 
 CP2K: atomistic simulations of condensed matter systems.
 https://doi.org/10.1002/wcms.1159

 Marek, A; Blum, V; Johanni, R; Havu, V; Lang, B; Auckenthaler, T;
 Heinecke, A; Bungartz, H; Lederer, H. 
 Journal of Physics: Condensed Matter, 26 (21), (2014). 
 The ELPA library: scalable parallel eigenvalue solutions for
 electronic structure
 theory and computational science.
 https://doi.org/10.1088/0953-8984/26/21/213201

 Krack, M. 
 THEORETICAL CHEMISTRY ACCOUNTS, 114 (1-3), 145-152 (2005). 
 Pseudopotentials for H to Kr optimized for gradient-corrected
 exchange-correlation functionals.
 https://doi.org/10.1007/s00214-005-0655-y

 VandeVondele, J; Krack, M; Mohamed, F; Parrinello, M; Chassaing, T;
 Hutter, J. COMPUTER PHYSICS COMMUNICATIONS, 167 (2), 103-128 (2005). 
 QUICKSTEP: Fast and accurate density functional calculations using a
 mixed Gaussian and plane waves approach.
 https://doi.org/10.1016/j.cpc.2004.12.014

 Frigo, M; Johnson, SG. 
 PROCEEDINGS OF THE IEEE, 93 (2), 216-231 (2005). 
 The design and implementation of FFTW3.
 https://doi.org/10.1109/JPROC.2004.840301

 VandeVondele, J; Hutter, J. 
 JOURNAL OF CHEMICAL PHYSICS, 118 (10), 4365-4369 (2003). 
 An efficient orbital transformation method for electronic structure
 calculations.
 https://doi.org/10.1063/1.1543154

 Hartwigsen, C; Goedecker, S; Hutter, J. 
 PHYSICAL REVIEW B, 58 (7), 3641-3662 (1998). 
 Relativistic separable dual-space Gaussian pseudopotentials from H to Rn.
 https://doi.org/10.1103/PhysRevB.58.3641

 Lippert, G; Hutter, J; Parrinello, M. 
 MOLECULAR PHYSICS, 92 (3), 477-487 (1997). 
 A hybrid Gaussian and plane wave density functional scheme.
 https://doi.org/10.1080/002689797170220

 Goedecker, S; Teter, M; Hutter, J. 
 PHYSICAL REVIEW B, 54 (3), 1703-1710 (1996). 
 Separable dual-space Gaussian pseudopotentials.
 https://doi.org/10.1103/PhysRevB.54.1703


 -------------------------------------------------------------------------------
 -                                                                             -
 -                                T I M I N G                                  -
 -                                                                             -
 -------------------------------------------------------------------------------
 SUBROUTINE                       CALLS  ASD         SELF TIME        TOTAL TIME
                                MAXIMUM       AVERAGE  MAXIMUM  AVERAGE  MAXIMUM
 CP2K                                 1  1.0    0.009    0.011  122.455  122.462
 qs_mol_dyn_low                       1  2.0    0.003    0.003  120.393  122.346
 qs_forces                           11  3.9    0.004    0.004  120.137  120.137
 qs_energies                         11  4.9    0.001    0.001  118.605  118.621
 scf_env_do_scf                      11  5.9    0.001    0.001  101.788  101.790
 scf_env_do_scf_inner_loop          116  6.6    0.003    0.009   80.361   80.362
 velocity_verlet                     10  3.0    0.001    0.002   67.348   67.349
 qs_scf_new_mos                     116  7.6    0.001    0.001   65.537   65.693
 qs_scf_loop_do_ot                  116  8.6    0.001    0.001   65.536   65.692
 ot_scf_mini                        116  9.6    0.004    0.004   62.892   63.069
 dbcsr_multiply_generic            2431 12.5    0.137    0.144   54.373   56.409
 multiply_cannon                   2431 13.5    0.296    0.318   44.238   47.253
 multiply_cannon_loop              2431 14.5    0.384    0.413   42.523   45.759
 ot_mini                            116 10.6    0.002    0.002   34.483   34.694
 multiply_cannon_multrec          77792 15.5   24.238   27.904   24.247   27.913
 mp_waitall_1                    769642 15.7   16.008   25.566   16.008   25.566
 init_scf_loop                       11  6.9    0.000    0.000   21.383   21.384
 prepare_preconditioner              11  7.9    0.000    0.000   19.859   19.881
 make_preconditioner                 11  8.9    0.000    0.000   19.859   19.881
 qs_ot_get_p                        127 10.4    0.001    0.001   19.117   19.393
 make_full_inverse_cholesky          11  9.9    0.000    0.001   19.150   19.184
 multiply_cannon_metrocomm3       77792 15.5    0.157    0.166    9.320   18.557
 apply_preconditioner_dbcsr         127 12.6    0.000    0.000   16.385   18.093
 apply_single                       127 13.6    0.000    0.000   16.385   18.092
 ot_diis_step                       116 11.6    0.007    0.009   17.515   17.516
 qs_ot_get_derivative               116 11.6    0.001    0.001   16.702   16.893
 qs_ot_p2m_diag                      66 11.2    0.034    0.037   15.594   15.610
 cp_dbcsr_syevd                      66 12.2    0.005    0.006   14.956   14.972
 cp_fm_diag_elpa                     66 13.2    0.000    0.001   14.785   14.789
 cp_fm_redistribute_end              66 14.2   13.623   14.668   13.648   14.673
 multiply_cannon_metrocomm4       75361 15.5    0.165    0.174    5.750   14.539
 cp_fm_diag_elpa_base                66 14.2    1.004   14.313    1.016   14.479
 mp_irecv_dv                     161357 16.5    5.496   14.274    5.496   14.274
 rebuild_ks_matrix                  127  8.3    0.001    0.001   10.414   10.681
 qs_ks_build_kohn_sham_matrix       127  9.3    0.016    0.018   10.414   10.680
 qs_ks_update_qs_env                127  7.6    0.002    0.004    9.383    9.632
 cp_fm_cholesky_invert               11 10.9    9.268    9.275    9.268    9.275
 qs_energies_init_hamiltonians       11  5.9    0.000    0.001    8.494    8.495
 qs_env_update_s_mstruct             11  6.9    0.000    0.000    8.205    8.294
 cp_fm_cholesky_decompose            22 10.9    7.741    7.783    7.741    7.783
 qs_create_task_list                 11  7.9    0.000    0.000    7.552    7.671
 generate_qs_task_list               11  8.9    0.043    0.067    7.552    7.671
 distribute_tasks                    11  9.9    0.012    0.014    7.503    7.628
 qs_rho_update_rho                  127  7.7    0.001    0.001    7.549    7.610
 calculate_rho_elec                 127  8.7    0.022    0.023    7.549    7.609
 create_local_tasks                  11 10.9    0.003    0.004    7.283    7.366
 mp_alltoall_l11v                    11 11.9    7.278    7.362    7.278    7.362
 init_scf_run                        11  5.9    0.000    0.001    6.999    6.999
 scf_env_initial_rho_setup           11  6.9    0.000    0.000    6.998    6.999
 make_m2s                          4862 13.5    0.108    0.119    6.216    6.632
 qs_ot_get_derivative_diag           62 12.2    0.001    0.001    5.772    5.869
 make_images                       4862 14.5    0.517    0.648    5.423    5.822
 rs_pw_transfer                    1038 11.9    0.010    0.012    5.152    5.409
 wfi_extrapolate                     11  7.9    0.001    0.001    5.194    5.194
 density_rs2pw                      127  9.7    0.004    0.005    4.259    4.537
 sum_up_and_integrate               127 10.3    0.005    0.005    4.477    4.486
 integrate_v_rspace                 127 11.3    0.003    0.004    4.472    4.482
 mp_sum_d                          4424 12.1    2.981    4.429    2.981    4.429
 mp_sum_l                         11831 13.4    3.110    4.283    3.110    4.283
 mp_alltoall_d11v                  2299 14.0    4.101    4.240    4.101    4.240
 dbcsr_dot_sd                      1303 12.0    0.198    0.207    2.715    4.148
 qs_ot_get_derivative_taylor         54 13.0    0.001    0.001    4.052    4.145
 dbcsr_complete_redistribute        361 12.5    0.205    0.224    3.686    3.829
 qs_ot_get_orbitals                 116 10.6    0.000    0.000    3.668    3.801
 make_images_data                  4862 15.5    0.079    0.090    3.165    3.695
 multiply_cannon_metrocomm1       77792 15.5    0.090    0.095    2.364    3.639
 hybrid_alltoall_any               5031 16.4    0.069    0.267    2.919    3.495
 cp_gemm                             81  9.0    0.000    0.000    3.338    3.361
 cp_gemm_fm_gemm                     81 10.0    0.000    0.000    3.337    3.360
 cp_fm_gemm                          81 11.0    3.337    3.360    3.337    3.360
 copy_dbcsr_to_fm                   169 11.5    0.003    0.004    3.079    3.151
 calculate_dm_sparse                127  9.5    0.000    0.000    2.940    3.055
 grid_collocate_task_list           127  9.7    2.745    2.877    2.745    2.877
 transfer_dbcsr_to_fm                11 10.9    0.000    0.000    2.578    2.603
 potential_pw2rs                    127 12.3    0.003    0.004    2.505    2.516
 mp_allgather_i34                  2431 14.5    1.221    2.515    1.221    2.515
 -------------------------------------------------------------------------------

 The number of warnings for this run is : 2
 
 -------------------------------------------------------------------------------
  **** **** ******  **  PROGRAM ENDED AT                 2022-01-20 10:45:30.634
 ***** ** ***  *** **   PROGRAM RAN ON                                 nid005779
 **    ****   ******    PROGRAM RAN BY                                    hjudge
 ***** **    ** ** **   PROGRAM PROCESS ID                                137021
  **** **  *******  **  PROGRAM STOPPED IN /mnt/lustre/a2fs-work2/work/z19/z19/h
                                           judge/CUG/archer2/CPU/CP2K/H2O-512/16
                                           NODES/128CPN/4THREADS
