 DBCSR| CPU Multiplication driver                                           BLAS
 DBCSR| Multrec recursion limit                                              512
 DBCSR| Multiplication stack size                                           1000
 DBCSR| Maximum elements for images                                    UNLIMITED
 DBCSR| Multiplicative factor virtual images                                   1
 DBCSR| Use multiplication densification                                       T
 DBCSR| Multiplication size stacks                                             3
 DBCSR| Use memory pool for CPU allocation                                     F
 DBCSR| Number of 3D layers                                               SINGLE
 DBCSR| Use MPI memory allocation                                              F
 DBCSR| Use RMA algorithm                                                      F
 DBCSR| Use Communication thread                                               T
 DBCSR| Communication thread load                                             60
 DBCSR| MPI: My node id                                                        0
 DBCSR| MPI: Number of nodes                                                  16
 DBCSR| OMP: Current number of threads                                         8
 DBCSR| OMP: Max number of threads                                             8
 DBCSR| Split modifier for TAS multiplication algorithm                  1.0E+00


  **** **** ******  **  PROGRAM STARTED AT               2022-01-17 16:20:22.014
 ***** ** ***  *** **   PROGRAM STARTED ON                             nid006823
 **    ****   ******    PROGRAM STARTED BY                                hjudge
 ***** **    ** ** **   PROGRAM PROCESS ID                                203092
  **** **  *******  **  PROGRAM STARTED IN /mnt/lustre/a2fs-work2/work/z19/z19/h
                                           judge/CUG/archer2/CPU/CP2K/H2O-512/1N
                                           ODES/128CPN/8THREADS

 CP2K| version string:                                          CP2K version 8.2
 CP2K| source code revision number:                                  git:310b7ab
 CP2K| cp2kflags: omp libint fftw3 libxc elpa parallel mpi3 scalapack plumed2   
 CP2K| is freely available from                            https://www.cp2k.org/
 CP2K| Program compiled at                          Thu Dec  2 10:30:45 GMT 2021
 CP2K| Program compiled on                                                  ln02
 CP2K| Program compiled for                                              ARCHER2
 CP2K| Data directory path         /work/y07/shared/apps/core/cp2k/cp2k-8.2/data
 CP2K| Input file name                                               H2O-512.inp

 GLOBAL| Force Environment number                                              1
 GLOBAL| Basis set file name                                      GTH_BASIS_SETS
 GLOBAL| Potential file name                                           POTENTIAL
 GLOBAL| MM Potential file name                                     MM_POTENTIAL
 GLOBAL| Coordinate file name                                      __STD_INPUT__
 GLOBAL| Method name                                                        CP2K
 GLOBAL| Project name                                                    H2O-512
 GLOBAL| Run type                                                             MD
 GLOBAL| FFT library                                                       FFTW3
 GLOBAL| Diagonalization library                                            ELPA
 GLOBAL| Minimum number of eigenvectors for ELPA usage                        16
 GLOBAL| Orthonormality check for eigenvectors                          DISABLED
 GLOBAL| Matrix multiplication library                                    SCALAP
 GLOBAL| All-to-all communication in single precision                          F
 GLOBAL| FFTs using library dependent lengths                                  F
 GLOBAL| Grid backend                                                       AUTO
 GLOBAL| Global print level                                                  LOW
 GLOBAL| MPI I/O enabled                                                       T
 GLOBAL| Total number of message passing processes                            16
 GLOBAL| Number of threads for this process                                    8
 GLOBAL| This output is from process                                           0
 GLOBAL| CPU model name                          AMD EPYC 7742 64-Core Processor
 GLOBAL| CPUID                                                              1002

 MEMORY| system memory details [Kb]
 MEMORY|                        rank 0           min           max       average
 MEMORY| MemTotal            263528084     263528084     263528084     263528084
 MEMORY| MemFree             252929440     252929440     252929440     252929440
 MEMORY| Buffers                 40388         40388         40388         40388
 MEMORY| Cached                1032884       1032884       1032884       1032884
 MEMORY| Slab                  1523704       1523704       1523704       1523704
 MEMORY| SReclaimable            84300         84300         84300         84300
 MEMORY| MemLikelyFree       254087012     254087012     254087012     254087012


 GENERATE|  Preliminary Number of Bonds generated:                             0
 GENERATE|  Achieved consistency in connectivity generation.

 *******************************************************************************
 *******************************************************************************
 **                                                                           **
 **     #####                         ##              ##                      **
 **    ##   ##            ##          ##              ##                      **
 **   ##     ##                       ##            ######                    **
 **   ##     ##  ##   ##  ##   #####  ##  ##   ####   ##    #####    #####    **
 **   ##     ##  ##   ##  ##  ##      ## ##   ##      ##   ##   ##  ##   ##   **
 **   ##  ## ##  ##   ##  ##  ##      ####     ###    ##   ######   ######    **
 **    ##  ###   ##   ##  ##  ##      ## ##      ##   ##   ##       ##        **
 **     #######   #####   ##   #####  ##  ##  ####    ##    #####   ##        **
 **           ##                                                    ##        **
 **                                                                           **
 **                                                ... make the atoms dance   **
 **                                                                           **
 **            Copyright (C) by CP2K developers group (2000-2021)             **
 **                      J. Chem. Phys. 152, 194103 (2020)                    **
 **                                                                           **
 *******************************************************************************


 TOTAL NUMBERS AND MAXIMUM NUMBERS

  Total number of            - Atomic kinds:                                   2
                             - Atoms:                                       1536
                             - Shell sets:                                  3072
                             - Shells:                                      9216
                             - Primitive Cartesian functions:              10752
                             - Cartesian basis functions:                  21504
                             - Spherical basis functions:                  20480

  Maximum angular momentum of- Orbital basis functions:                        2
                             - Local part of the GTH pseudopotential:          2
                             - Non-local part of the GTH pseudopotential:      0


 SCF PARAMETERS         Density guess:                                    ATOMIC
                        --------------------------------------------------------
                        max_scf:                                              50
                        max_scf_history:                                       0
                        max_diis:                                              4
                        --------------------------------------------------------
                        eps_scf:                                        1.00E-05
                        eps_scf_history:                                0.00E+00
                        eps_diis:                                       1.00E-01
                        eps_eigval:                                     1.00E-05
                        --------------------------------------------------------
                        level_shift [a.u.]:                                 0.00
                        --------------------------------------------------------
                        No outer SCF

 MD_PAR| Molecular dynamics protocol (MD input parameters)
 MD_PAR| Ensemble type                                                       NVE
 MD_PAR| Number of time steps                                                 10
 MD_PAR| Time step [fs]                                                 0.500000
 MD_PAR| Temperature [K]                                              300.000000
 MD_PAR| Temperature tolerance [K]                                      0.000000
 MD_PAR| Print MD information every                                    1 step(s)
 MD_PAR| File type   Print frequency [steps]                          File names
 MD_PAR| Coordinates          1                                H2O-512-pos-1.xyz
 MD_PAR| Velocities           1                                H2O-512-vel-1.xyz
 MD_PAR| Energies             1                                   H2O-512-1.ener
 MD_PAR| Dump                20                                H2O-512-1.restart

 ROT| Rotational analysis information
 ROT| Principal axes and moments of inertia [a.u.]
 ROT|                           1                   2                   3
 ROT| Eigenvalues      6.12011925703E+09   6.17734003456E+09   6.32378668800E+09
 ROT|      x              0.229702356692      0.883899672739      0.407379670409
 ROT|      y              0.711719446246      0.132949289019     -0.689768016354
 ROT|      z              0.663846561462     -0.448381372362      0.598549820611
 ROT| Number of rotovibrational vectors                                        6

 DOF| Calculation of degrees of freedom
 DOF| Number of atoms                                                       1536
 DOF| Number of intramolecular constraints                                     0
 DOF| Number of intermolecular constraints                                     0
 DOF| Invariants (translations + rotations)                                    3
 DOF| Degrees of freedom                                                    4605

 DOF| Restraints information
 DOF| Number of intramolecular restraints                                      0
 DOF| Number of intermolecular restraints                                      0

 MD_VEL| Velocities initialization
 MD_VEL| Initial temperature [K]                                      300.000000
 MD_VEL| COM velocity             0.0000000000    -0.0000000000     0.0000000000

 Number of electrons:                                                       4096
 Number of occupied orbitals:                                               2048
 Number of molecular orbitals:                                              2048

 Number of orbital functions:                                              20480
 Number of independent orbital functions:                                  20480

 Extrapolation method: initial_guess


 SCF WAVEFUNCTION OPTIMIZATION

  ----------------------------------- OT ---------------------------------------
  Minimizer      : DIIS                : direct inversion
                                         in the iterative subspace
                                         using   7 DIIS vectors
                                         safer DIIS on
  Preconditioner : FULL_KINETIC        : inversion of T + eS
  Precond_solver : DEFAULT
  stepsize       :    0.15000000                  energy_gap     :    0.20000000
  eps_taylor     :   0.10000E-15                  max_taylor     :             4
  ----------------------------------- OT ---------------------------------------

  Step     Update method      Time    Convergence         Total energy    Change
  ------------------------------------------------------------------------------
     1 OT DIIS     0.15E+00   16.5     0.00467324     -8480.4728425690 -8.48E+03
     2 OT DIIS     0.15E+00    4.3     0.00318266     -8587.4488310143 -1.07E+02
     3 OT DIIS     0.15E+00    4.3     0.00347210     -8644.7931966768 -5.73E+01
     4 OT DIIS     0.15E+00    4.3     0.00204380     -8678.2157923836 -3.34E+01
     5 OT DIIS     0.15E+00    4.3     0.00148292     -8717.4624183879 -3.92E+01
     6 OT DIIS     0.15E+00    4.3     0.00119954     -8738.7795043572 -2.13E+01
     7 OT DIIS     0.15E+00    4.3     0.00099038     -8755.0185947301 -1.62E+01
     8 OT DIIS     0.15E+00    4.3     0.00079894     -8767.5347825453 -1.25E+01
     9 OT DIIS     0.15E+00    4.3     0.00061581     -8780.1862563835 -1.27E+01
    10 OT DIIS     0.15E+00    4.3     0.00048147     -8788.6147471043 -8.43E+00
    11 OT DIIS     0.15E+00    4.3     0.00038278     -8794.1215228889 -5.51E+00
    12 OT DIIS     0.15E+00    4.3     0.00031960     -8797.5363589594 -3.41E+00
    13 OT DIIS     0.15E+00    4.3     0.00026435     -8799.9344030908 -2.40E+00
    14 OT DIIS     0.15E+00    4.3     0.00023004     -8801.7089305035 -1.77E+00
    15 OT DIIS     0.15E+00    4.3     0.00019592     -8803.0697888564 -1.36E+00
    16 OT DIIS     0.15E+00    4.3     0.00016642     -8804.2000843412 -1.13E+00
    17 OT DIIS     0.15E+00    4.3     0.00014164     -8805.0506655806 -8.51E-01
    18 OT DIIS     0.15E+00    4.4     0.00012638     -8805.6725421207 -6.22E-01
    19 OT DIIS     0.15E+00    4.3     0.00010717     -8806.2171485646 -5.45E-01
    20 OT DIIS     0.15E+00    4.3     0.00009868     -8806.5290018963 -3.12E-01
    21 OT DIIS     0.15E+00    4.3     0.00008484     -8806.8772741195 -3.48E-01
    22 OT DIIS     0.15E+00    4.4     0.00007717     -8807.0943334428 -2.17E-01
    23 OT DIIS     0.15E+00    4.3     0.00006815     -8807.2974129499 -2.03E-01
    24 OT DIIS     0.15E+00    4.3     0.00006019     -8807.4529078233 -1.55E-01
    25 OT DIIS     0.15E+00    4.3     0.00005010     -8807.5989834234 -1.46E-01
    26 OT DIIS     0.15E+00    4.3     0.00004000     -8807.6989662228 -1.00E-01
    27 OT DIIS     0.15E+00    4.3     0.00003462     -8807.7827122402 -8.37E-02
    28 OT DIIS     0.15E+00    4.3     0.00003071     -8807.7824932500  2.19E-04
    29 OT DIIS     0.15E+00    4.3     0.00002690     -8807.8200993195 -3.76E-02
    30 OT DIIS     0.15E+00    4.4     0.00002500     -8807.8399634017 -1.99E-02
    31 OT DIIS     0.15E+00    4.3     0.00002395     -8807.8566460922 -1.67E-02
    32 OT DIIS     0.15E+00    4.3     0.00002328     -8807.8682689642 -1.16E-02
    33 OT DIIS     0.15E+00    4.3     0.00002304     -8807.8827275965 -1.45E-02
    34 OT DIIS     0.15E+00    4.3     0.00002300     -8807.8854890297 -2.76E-03
    35 OT SD       0.15E+00    4.3     0.00002301     -8807.8907467596 -5.26E-03
    36 OT SD       0.15E+00    4.4     0.00002308     -8807.8940817096 -3.33E-03
    37 OT SD       0.15E+00    4.3     0.00002318     -8807.8974407043 -3.36E-03
    38 OT SD       0.15E+00    4.3     0.00002329     -8807.9008284718 -3.39E-03
    39 OT SD       0.15E+00    4.3     0.00002341     -8807.9042491083 -3.42E-03
    40 OT SD       0.15E+00    4.3     0.00002354     -8807.9077063659 -3.46E-03
    41 OT SD       0.15E+00    4.3     0.00002369     -8807.9112037365 -3.50E-03
    42 OT SD       0.15E+00    4.3     0.00002384     -8807.9147444866 -3.54E-03
    43 OT SD       0.15E+00    4.3     0.00002400     -8807.9183316715 -3.59E-03
    44 OT SD       0.15E+00    4.3     0.00002417     -8807.9219681410 -3.64E-03
    45 OT DIIS     0.15E+00    4.3     0.00002435     -8807.9256565391 -3.69E-03
    46 OT DIIS     0.15E+00    4.3     0.00004960     -8807.9132721569  1.24E-02
    47 OT SD       0.15E+00    4.3     0.00005084     -8807.9140640505 -7.92E-04
    48 OT SD       0.15E+00    4.3     0.00004011     -8807.9282965764 -1.42E-02
    49 OT SD       0.15E+00    4.3     0.00003556     -8807.9377605966 -9.46E-03
    50 OT SD       0.15E+00    4.3     0.00003334     -8807.9454282197 -7.67E-03

  Leaving inner SCF loop after reaching    50 steps.


  Electronic density on regular grids:      -4096.0000075302       -0.0000075302
  Core density on regular grids:             4095.9999999927       -0.0000000073
  Total charge density on r-space grids:       -0.0000075375
  Total charge density g-space grids:          -0.0000075375

  Overlap energy of the core charge distribution:               0.00004500798551
  Self energy of the core charge distribution:             -22442.43995950839599
  Core Hamiltonian energy:                                   6603.78844984765510
  Hartree energy:                                            9161.23679976688072
  Exchange-correlation energy:                              -2130.53076333385252

  Total energy:                                             -8807.94542821972573

 *** WARNING in qs_scf.F:576 :: SCF run NOT converged ***


 ENERGY| Total FORCE_EVAL ( QS ) energy [a.u.]:            -8807.952282804355491

 MD_INI| MD initialization
 MD_INI| Potential energy [hartree]                          -0.880795228280E+04
 MD_INI| Kinetic energy [hartree]                             0.218747769838E+01
 MD_INI| Temperature [K]                                              300.000000
 MD_INI| Cell volume [bohr^3]                                 1.037187315243E+05
 MD_INI| Cell volume [ang^3]                                  1.536953010365E+04
 MD_INI| Cell lengths [bohr]      4.69842608E+01  4.69842608E+01  4.69842608E+01
 MD_INI| Cell lengths [ang]       2.48630000E+01  2.48630000E+01  2.48630000E+01
 MD_INI| Cell angles [deg]        9.00000000E+01  9.00000000E+01  9.00000000E+01

 Number of electrons:                                                       4096
 Number of occupied orbitals:                                               2048
 Number of molecular orbitals:                                              2048

 Number of orbital functions:                                              20480
 Number of independent orbital functions:                                  20480

 Extrapolation method: PS Nth order
 Extrapolation order:  0


 SCF WAVEFUNCTION OPTIMIZATION

  ----------------------------------- OT ---------------------------------------
  Minimizer      : DIIS                : direct inversion
                                         in the iterative subspace
                                         using   7 DIIS vectors
                                         safer DIIS on
  Preconditioner : FULL_KINETIC        : inversion of T + eS
  Precond_solver : DEFAULT
  stepsize       :    0.15000000                  energy_gap     :    0.20000000
  eps_taylor     :   0.10000E-15                  max_taylor     :             4
  ----------------------------------- OT ---------------------------------------

  Step     Update method      Time    Convergence         Total energy    Change
  ------------------------------------------------------------------------------
     1 OT DIIS     0.15E+00   16.1     0.00010168     -8807.9543335096 -8.81E+03
     2 OT DIIS     0.15E+00    3.9     0.00007399     -8808.0090860405 -5.48E-02
     3 OT DIIS     0.15E+00    3.9     0.00005492     -8808.0644668598 -5.54E-02
     4 OT DIIS     0.15E+00    3.9     0.00004932     -8808.1018655065 -3.74E-02
     5 OT DIIS     0.15E+00    4.3     0.00004590     -8808.1447562589 -4.29E-02
     6 OT DIIS     0.15E+00    4.3     0.00004349     -8808.1868590328 -4.21E-02
     7 OT DIIS     0.15E+00    4.3     0.00003915     -8808.2470627283 -6.02E-02
     8 OT DIIS     0.15E+00    4.3     0.00002836     -8808.3270492267 -8.00E-02
     9 OT DIIS     0.15E+00    4.4     0.00002030     -8808.3585244993 -3.15E-02
    10 OT DIIS     0.15E+00    4.4     0.00001290     -8808.3785007182 -2.00E-02
    11 OT DIIS     0.15E+00    4.4     0.00001028     -8808.3792365508 -7.36E-04
    12 OT DIIS     0.15E+00    4.4     0.00000706     -8808.3828010199 -3.56E-03

  *** SCF run converged in    12 steps ***


  Electronic density on regular grids:      -4096.0000079114       -0.0000079114
  Core density on regular grids:             4095.9999999916       -0.0000000084
  Total charge density on r-space grids:       -0.0000079198
  Total charge density g-space grids:          -0.0000079198

  Overlap energy of the core charge distribution:               0.00004378129290
  Self energy of the core charge distribution:             -22442.43995950839599
  Core Hamiltonian energy:                                   6601.18465549636676
  Hartree energy:                                            9162.94050411353055
  Exchange-correlation energy:                              -2130.06804490268587

  Total energy:                                             -8808.38280101989221

 ENERGY| Total FORCE_EVAL ( QS ) energy [a.u.]:            -8808.383475974591420

 MD| ***************************************************************************
 MD| Step number                                                               1
 MD| Time [fs]                                                          0.500000
 MD| Conserved quantity [hartree]                            -0.880615756637E+04
 MD| ---------------------------------------------------------------------------
 MD|                                          Instantaneous             Averages
 MD| CPU time per MD step [s]                    302.501846           302.501846
 MD| Energy drift per atom [K]          -0.807448240288E+02   0.000000000000E+00
 MD| Potential energy [hartree]         -0.880838347597E+04  -0.880838347597E+04
 MD| Kinetic energy [hartree]            0.222590960506E+01   0.222590960506E+01
 MD| Temperature [K]                             305.270715           305.270715
 MD| ***************************************************************************

 Number of electrons:                                                       4096
 Number of occupied orbitals:                                               2048
 Number of molecular orbitals:                                              2048

 Number of orbital functions:                                              20480
 Number of independent orbital functions:                                  20480

 Extrapolation method: PS Nth order
 Extrapolation order:  1


 SCF WAVEFUNCTION OPTIMIZATION

  ----------------------------------- OT ---------------------------------------
  Minimizer      : DIIS                : direct inversion
                                         in the iterative subspace
                                         using   7 DIIS vectors
                                         safer DIIS on
  Preconditioner : FULL_KINETIC        : inversion of T + eS
  Precond_solver : DEFAULT
  stepsize       :    0.15000000                  energy_gap     :    0.20000000
  eps_taylor     :   0.10000E-15                  max_taylor     :             4
  ----------------------------------- OT ---------------------------------------

  Step     Update method      Time    Convergence         Total energy    Change
  ------------------------------------------------------------------------------
     1 OT DIIS     0.15E+00   16.3     0.00008001     -8808.4313241329 -8.81E+03
     2 OT DIIS     0.15E+00    3.9     0.00005271     -8808.4637586373 -3.24E-02
     3 OT DIIS     0.15E+00    4.0     0.00003321     -8808.4886608873 -2.49E-02
     4 OT DIIS     0.15E+00    3.9     0.00002251     -8808.5029535998 -1.43E-02
     5 OT DIIS     0.15E+00    4.0     0.00001406     -8808.5119336810 -8.98E-03
     6 OT DIIS     0.15E+00    4.0     0.00000837     -8808.5159253724 -3.99E-03

  *** SCF run converged in     6 steps ***


  Electronic density on regular grids:      -4096.0000084048       -0.0000084048
  Core density on regular grids:             4095.9999999941       -0.0000000059
  Total charge density on r-space grids:       -0.0000084107
  Total charge density g-space grids:          -0.0000084107

  Overlap energy of the core charge distribution:               0.00003948972943
  Self energy of the core charge distribution:             -22442.43995950839599
  Core Hamiltonian energy:                                   6592.75635650184631
  Hartree energy:                                            9168.97931836162388
  Exchange-correlation energy:                              -2127.81168021722351

  Total energy:                                             -8808.51592537241959

 ENERGY| Total FORCE_EVAL ( QS ) energy [a.u.]:            -8808.517236704276002

 MD| ***************************************************************************
 MD| Step number                                                               2
 MD| Time [fs]                                                          1.000000
 MD| Conserved quantity [hartree]                            -0.880616182362E+04
 MD| ---------------------------------------------------------------------------
 MD|                                          Instantaneous             Averages
 MD| CPU time per MD step [s]                     41.453404           171.977625
 MD| Energy drift per atom [K]          -0.816200405738E+02  -0.408100202869E+02
 MD| Potential energy [hartree]         -0.880851723670E+04  -0.880845035634E+04
 MD| Kinetic energy [hartree]            0.235541308160E+01   0.229066134333E+01
 MD| Temperature [K]                             323.031373           314.151044
 MD| ***************************************************************************

 Number of electrons:                                                       4096
 Number of occupied orbitals:                                               2048
 Number of molecular orbitals:                                              2048

 Number of orbital functions:                                              20480
 Number of independent orbital functions:                                  20480

 Extrapolation method: PS Nth order
 Extrapolation order:  2


 SCF WAVEFUNCTION OPTIMIZATION

  ----------------------------------- OT ---------------------------------------
  Minimizer      : DIIS                : direct inversion
                                         in the iterative subspace
                                         using   7 DIIS vectors
                                         safer DIIS on
  Preconditioner : FULL_KINETIC        : inversion of T + eS
  Precond_solver : DEFAULT
  stepsize       :    0.15000000                  energy_gap     :    0.20000000
  eps_taylor     :   0.10000E-15                  max_taylor     :             4
  ----------------------------------- OT ---------------------------------------

  Step     Update method      Time    Convergence         Total energy    Change
  ------------------------------------------------------------------------------
     1 OT DIIS     0.15E+00   16.5     0.00008993     -8808.3716308711 -8.81E+03
     2 OT DIIS     0.15E+00    3.9     0.00007431     -8808.4173796973 -4.57E-02
     3 OT DIIS     0.15E+00    3.9     0.00005877     -8808.4862188674 -6.88E-02
     4 OT DIIS     0.15E+00    3.9     0.00004979     -8808.5437290813 -5.75E-02
     5 OT DIIS     0.15E+00    3.9     0.00004006     -8808.6033992515 -5.97E-02
     6 OT DIIS     0.15E+00    4.2     0.00002840     -8808.6545589848 -5.12E-02
     7 OT DIIS     0.15E+00    4.3     0.00001854     -8808.6821051549 -2.75E-02
     8 OT DIIS     0.15E+00    4.3     0.00001251     -8808.6920736432 -9.97E-03
     9 OT DIIS     0.15E+00    4.3     0.00000891     -8808.6959132589 -3.84E-03

  *** SCF run converged in     9 steps ***


  Electronic density on regular grids:      -4096.0000081507       -0.0000081507
  Core density on regular grids:             4095.9999999985       -0.0000000015
  Total charge density on r-space grids:       -0.0000081522
  Total charge density g-space grids:          -0.0000081522

  Overlap energy of the core charge distribution:               0.00003222718627
  Self energy of the core charge distribution:             -22442.43995950839599
  Core Hamiltonian energy:                                   6579.97342837150427
  Hartree energy:                                            9178.11100461216665
  Exchange-correlation energy:                              -2124.34041896137978

  Total energy:                                             -8808.69591325891633

 ENERGY| Total FORCE_EVAL ( QS ) energy [a.u.]:            -8808.697760226250466

 MD| ***************************************************************************
 MD| Step number                                                               3
 MD| Time [fs]                                                          1.500000
 MD| Conserved quantity [hartree]                            -0.880616480310E+04
 MD| ---------------------------------------------------------------------------
 MD|                                          Instantaneous             Averages
 MD| CPU time per MD step [s]                     55.590477           133.181909
 MD| Energy drift per atom [K]          -0.822325692564E+02  -0.546175366100E+02
 MD| Potential energy [hartree]         -0.880869776023E+04  -0.880853282430E+04
 MD| Kinetic energy [hartree]            0.253295712418E+01   0.237142660361E+01
 MD| Temperature [K]                             347.380519           325.227536
 MD| ***************************************************************************

 Number of electrons:                                                       4096
 Number of occupied orbitals:                                               2048
 Number of molecular orbitals:                                              2048

 Number of orbital functions:                                              20480
 Number of independent orbital functions:                                  20480

 Extrapolation method: PS Nth order
 Extrapolation order:  3


 SCF WAVEFUNCTION OPTIMIZATION

  ----------------------------------- OT ---------------------------------------
  Minimizer      : DIIS                : direct inversion
                                         in the iterative subspace
                                         using   7 DIIS vectors
                                         safer DIIS on
  Preconditioner : FULL_KINETIC        : inversion of T + eS
  Precond_solver : DEFAULT
  stepsize       :    0.15000000                  energy_gap     :    0.20000000
  eps_taylor     :   0.10000E-15                  max_taylor     :             4
  ----------------------------------- OT ---------------------------------------

  Step     Update method      Time    Convergence         Total energy    Change
  ------------------------------------------------------------------------------
     1 OT DIIS     0.15E+00   16.7     0.00008299     -8808.7601119357 -8.81E+03
     2 OT DIIS     0.15E+00    3.9     0.00005686     -8808.7956285399 -3.55E-02
     3 OT DIIS     0.15E+00    3.9     0.00003613     -8808.8258226308 -3.02E-02
     4 OT DIIS     0.15E+00    3.9     0.00002270     -8808.8440399321 -1.82E-02
     5 OT DIIS     0.15E+00    3.9     0.00001489     -8808.8523347849 -8.29E-03
     6 OT DIIS     0.15E+00    4.0     0.00000969     -8808.8563586991 -4.02E-03

  *** SCF run converged in     6 steps ***


  Electronic density on regular grids:      -4096.0000085807       -0.0000085807
  Core density on regular grids:             4096.0000000009        0.0000000009
  Total charge density on r-space grids:       -0.0000085798
  Total charge density g-space grids:          -0.0000085798

  Overlap energy of the core charge distribution:               0.00002346607215
  Self energy of the core charge distribution:             -22442.43995950839599
  Core Hamiltonian energy:                                   6564.27151337089072
  Hartree energy:                                            9189.38291307961481
  Exchange-correlation energy:                              -2120.07084910725780

  Total energy:                                             -8808.85635869907492

 ENERGY| Total FORCE_EVAL ( QS ) energy [a.u.]:            -8808.858125709699380

 MD| ***************************************************************************
 MD| Step number                                                               4
 MD| Time [fs]                                                          2.000000
 MD| Conserved quantity [hartree]                            -0.880616980706E+04
 MD| ---------------------------------------------------------------------------
 MD|                                          Instantaneous             Averages
 MD| CPU time per MD step [s]                     43.316175           110.715476
 MD| Energy drift per atom [K]          -0.832612956979E+02  -0.617784763820E+02
 MD| Potential energy [hartree]         -0.880885812571E+04  -0.880861414965E+04
 MD| Kinetic energy [hartree]            0.268831864729E+01   0.245064961453E+01
 MD| Temperature [K]                             368.687459           336.092516
 MD| ***************************************************************************

 Number of electrons:                                                       4096
 Number of occupied orbitals:                                               2048
 Number of molecular orbitals:                                              2048

 Number of orbital functions:                                              20480
 Number of independent orbital functions:                                  20480

 Extrapolation method: PS Nth order
 Extrapolation order:  3


 SCF WAVEFUNCTION OPTIMIZATION

  ----------------------------------- OT ---------------------------------------
  Minimizer      : DIIS                : direct inversion
                                         in the iterative subspace
                                         using   7 DIIS vectors
                                         safer DIIS on
  Preconditioner : FULL_KINETIC        : inversion of T + eS
  Precond_solver : DEFAULT
  stepsize       :    0.15000000                  energy_gap     :    0.20000000
  eps_taylor     :   0.10000E-15                  max_taylor     :             4
  ----------------------------------- OT ---------------------------------------

  Step     Update method      Time    Convergence         Total energy    Change
  ------------------------------------------------------------------------------
     1 OT DIIS     0.15E+00   17.0     0.00005398     -8808.8521860029 -8.81E+03
     2 OT DIIS     0.15E+00    3.9     0.00004360     -8808.8685862886 -1.64E-02
     3 OT DIIS     0.15E+00    4.2     0.00002876     -8808.8948272901 -2.62E-02
     4 OT DIIS     0.15E+00    4.3     0.00002104     -8808.9082243119 -1.34E-02
     5 OT DIIS     0.15E+00    4.3     0.00001317     -8808.9185275759 -1.03E-02
     6 OT DIIS     0.15E+00    4.3     0.00000843     -8808.9223749025 -3.85E-03

  *** SCF run converged in     6 steps ***


  Electronic density on regular grids:      -4096.0000071800       -0.0000071800
  Core density on regular grids:             4095.9999999999       -0.0000000001
  Total charge density on r-space grids:       -0.0000071801
  Total charge density g-space grids:          -0.0000071801

  Overlap energy of the core charge distribution:               0.00001548079346
  Self energy of the core charge distribution:             -22442.43995950839599
  Core Hamiltonian energy:                                   6547.40957305293887
  Hartree energy:                                            9201.58659277164043
  Exchange-correlation energy:                              -2115.47859669948048

  Total energy:                                             -8808.92237490250409

 ENERGY| Total FORCE_EVAL ( QS ) energy [a.u.]:            -8808.923937243402179

 MD| ***************************************************************************
 MD| Step number                                                               5
 MD| Time [fs]                                                          2.500000
 MD| Conserved quantity [hartree]                            -0.880617229659E+04
 MD| ---------------------------------------------------------------------------
 MD|                                          Instantaneous             Averages
 MD| CPU time per MD step [s]                     44.906749            97.553730
 MD| Energy drift per atom [K]          -0.837730990419E+02  -0.661774009140E+02
 MD| Potential energy [hartree]         -0.880892393724E+04  -0.880867610717E+04
 MD| Kinetic energy [hartree]            0.275164065265E+01   0.251084782215E+01
 MD| Temperature [K]                             377.371708           344.348355
 MD| ***************************************************************************

 Number of electrons:                                                       4096
 Number of occupied orbitals:                                               2048
 Number of molecular orbitals:                                              2048

 Number of orbital functions:                                              20480
 Number of independent orbital functions:                                  20480

 Extrapolation method: PS Nth order
 Extrapolation order:  3


 SCF WAVEFUNCTION OPTIMIZATION

  ----------------------------------- OT ---------------------------------------
  Minimizer      : DIIS                : direct inversion
                                         in the iterative subspace
                                         using   7 DIIS vectors
                                         safer DIIS on
  Preconditioner : FULL_KINETIC        : inversion of T + eS
  Precond_solver : DEFAULT
  stepsize       :    0.15000000                  energy_gap     :    0.20000000
  eps_taylor     :   0.10000E-15                  max_taylor     :             4
  ----------------------------------- OT ---------------------------------------

  Step     Update method      Time    Convergence         Total energy    Change
  ------------------------------------------------------------------------------
     1 OT DIIS     0.15E+00   17.2     0.00004459     -8808.8152200698 -8.81E+03
     2 OT DIIS     0.15E+00    3.9     0.00003657     -8808.8265145346 -1.13E-02
     3 OT DIIS     0.15E+00    3.9     0.00002088     -8808.8466642029 -2.01E-02
     4 OT DIIS     0.15E+00    4.0     0.00001310     -8808.8539196643 -7.26E-03
     5 OT DIIS     0.15E+00    4.0     0.00000885     -8808.8567201142 -2.80E-03

  *** SCF run converged in     5 steps ***


  Electronic density on regular grids:      -4096.0000062625       -0.0000062625
  Core density on regular grids:             4095.9999999983       -0.0000000017
  Total charge density on r-space grids:       -0.0000062642
  Total charge density g-space grids:          -0.0000062642

  Overlap energy of the core charge distribution:               0.00000971623098
  Self energy of the core charge distribution:             -22442.43995950839599
  Core Hamiltonian energy:                                   6531.17263421005191
  Hartree energy:                                            9213.44176159312519
  Exchange-correlation energy:                              -2111.03116612521626

  Total energy:                                             -8808.85672011420502

 ENERGY| Total FORCE_EVAL ( QS ) energy [a.u.]:            -8808.858097025175084

 MD| ***************************************************************************
 MD| Step number                                                               6
 MD| Time [fs]                                                          3.000000
 MD| Conserved quantity [hartree]                            -0.880617011940E+04
 MD| ---------------------------------------------------------------------------
 MD|                                          Instantaneous             Averages
 MD| CPU time per MD step [s]                     39.921689            87.948390
 MD| Energy drift per atom [K]          -0.833255067152E+02  -0.690354185475E+02
 MD| Potential energy [hartree]         -0.880885809703E+04  -0.880870643881E+04
 MD| Kinetic energy [hartree]            0.268797762571E+01   0.254036945608E+01
 MD| Temperature [K]                             368.640690           348.397077
 MD| ***************************************************************************

 Number of electrons:                                                       4096
 Number of occupied orbitals:                                               2048
 Number of molecular orbitals:                                              2048

 Number of orbital functions:                                              20480
 Number of independent orbital functions:                                  20480

 Extrapolation method: PS Nth order
 Extrapolation order:  3


 SCF WAVEFUNCTION OPTIMIZATION

  ----------------------------------- OT ---------------------------------------
  Minimizer      : DIIS                : direct inversion
                                         in the iterative subspace
                                         using   7 DIIS vectors
                                         safer DIIS on
  Preconditioner : FULL_KINETIC        : inversion of T + eS
  Precond_solver : DEFAULT
  stepsize       :    0.15000000                  energy_gap     :    0.20000000
  eps_taylor     :   0.10000E-15                  max_taylor     :             4
  ----------------------------------- OT ---------------------------------------

  Step     Update method      Time    Convergence         Total energy    Change
  ------------------------------------------------------------------------------
     1 OT DIIS     0.15E+00   17.7     0.00004551     -8808.6384726086 -8.81E+03
     2 OT DIIS     0.15E+00    3.9     0.00003729     -8808.6502397955 -1.18E-02
     3 OT DIIS     0.15E+00    3.9     0.00002023     -8808.6710762105 -2.08E-02
     4 OT DIIS     0.15E+00    3.9     0.00001308     -8808.6771463718 -6.07E-03
     5 OT DIIS     0.15E+00    4.0     0.00000755     -8808.6802146437 -3.07E-03

  *** SCF run converged in     5 steps ***


  Electronic density on regular grids:      -4096.0000050933       -0.0000050933
  Core density on regular grids:             4095.9999999989       -0.0000000011
  Total charge density on r-space grids:       -0.0000050945
  Total charge density g-space grids:          -0.0000050945

  Overlap energy of the core charge distribution:               0.00000622090989
  Self energy of the core charge distribution:             -22442.43995950839599
  Core Hamiltonian energy:                                   6517.03117447675140
  Hartree energy:                                            9223.86272585790175
  Exchange-correlation energy:                              -2107.13416169087668

  Total energy:                                             -8808.68021464370759

 ENERGY| Total FORCE_EVAL ( QS ) energy [a.u.]:            -8808.681148703675717

 MD| ***************************************************************************
 MD| Step number                                                               7
 MD| Time [fs]                                                          3.500000
 MD| Conserved quantity [hartree]                            -0.880616596382E+04
 MD| ---------------------------------------------------------------------------
 MD|                                          Instantaneous             Averages
 MD| CPU time per MD step [s]                     40.308779            81.142731
 MD| Energy drift per atom [K]          -0.824711929271E+02  -0.709548148875E+02
 MD| Potential energy [hartree]         -0.880868114870E+04  -0.880870282594E+04
 MD| Kinetic energy [hartree]            0.251518488157E+01   0.253677165972E+01
 MD| Temperature [K]                             344.943158           347.903660
 MD| ***************************************************************************

 Number of electrons:                                                       4096
 Number of occupied orbitals:                                               2048
 Number of molecular orbitals:                                              2048

 Number of orbital functions:                                              20480
 Number of independent orbital functions:                                  20480

 Extrapolation method: PS Nth order
 Extrapolation order:  3


 SCF WAVEFUNCTION OPTIMIZATION

  ----------------------------------- OT ---------------------------------------
  Minimizer      : DIIS                : direct inversion
                                         in the iterative subspace
                                         using   7 DIIS vectors
                                         safer DIIS on
  Preconditioner : FULL_KINETIC        : inversion of T + eS
  Precond_solver : DEFAULT
  stepsize       :    0.15000000                  energy_gap     :    0.20000000
  eps_taylor     :   0.10000E-15                  max_taylor     :             4
  ----------------------------------- OT ---------------------------------------

  Step     Update method      Time    Convergence         Total energy    Change
  ------------------------------------------------------------------------------
     1 OT DIIS     0.15E+00   17.9     0.00004641     -8808.4083329420 -8.81E+03
     2 OT DIIS     0.15E+00    3.9     0.00003772     -8808.4205077219 -1.22E-02
     3 OT DIIS     0.15E+00    3.9     0.00002095     -8808.4409396685 -2.04E-02
     4 OT DIIS     0.15E+00    3.9     0.00001360     -8808.4479495661 -7.01E-03
     5 OT DIIS     0.15E+00    4.0     0.00001073     -8808.4504243005 -2.47E-03
     6 OT DIIS     0.15E+00    3.9     0.00000737     -8808.4530068579 -2.58E-03

  *** SCF run converged in     6 steps ***


  Electronic density on regular grids:      -4096.0000038473       -0.0000038473
  Core density on regular grids:             4096.0000000008        0.0000000008
  Total charge density on r-space grids:       -0.0000038464
  Total charge density g-space grids:          -0.0000038464

  Overlap energy of the core charge distribution:               0.00000436186861
  Self energy of the core charge distribution:             -22442.43995950839599
  Core Hamiltonian energy:                                   6506.06509510700744
  Hartree energy:                                            9232.01158391463468
  Exchange-correlation energy:                              -2104.08973073300695

  Total energy:                                             -8808.45300685789334

 ENERGY| Total FORCE_EVAL ( QS ) energy [a.u.]:            -8808.454572157974326

 MD| ***************************************************************************
 MD| Step number                                                               8
 MD| Time [fs]                                                          4.000000
 MD| Conserved quantity [hartree]                            -0.880616115657E+04
 MD| ---------------------------------------------------------------------------
 MD|                                          Instantaneous             Averages
 MD| CPU time per MD step [s]                     44.471187            76.558788
 MD| Energy drift per atom [K]          -0.814829053706E+02  -0.722708261979E+02
 MD| Potential energy [hartree]         -0.880845457216E+04  -0.880867179422E+04
 MD| Kinetic energy [hartree]            0.229341559224E+01   0.250635215129E+01
 MD| Temperature [K]                             314.528774           343.731799
 MD| ***************************************************************************

 Number of electrons:                                                       4096
 Number of occupied orbitals:                                               2048
 Number of molecular orbitals:                                              2048

 Number of orbital functions:                                              20480
 Number of independent orbital functions:                                  20480

 Extrapolation method: PS Nth order
 Extrapolation order:  3


 SCF WAVEFUNCTION OPTIMIZATION

  ----------------------------------- OT ---------------------------------------
  Minimizer      : DIIS                : direct inversion
                                         in the iterative subspace
                                         using   7 DIIS vectors
                                         safer DIIS on
  Preconditioner : FULL_KINETIC        : inversion of T + eS
  Precond_solver : DEFAULT
  stepsize       :    0.15000000                  energy_gap     :    0.20000000
  eps_taylor     :   0.10000E-15                  max_taylor     :             4
  ----------------------------------- OT ---------------------------------------

  Step     Update method      Time    Convergence         Total energy    Change
  ------------------------------------------------------------------------------
     1 OT DIIS     0.15E+00   18.3     0.00004051     -8808.2146841820 -8.81E+03
     2 OT DIIS     0.15E+00    3.9     0.00003407     -8808.2241485476 -9.46E-03
     3 OT DIIS     0.15E+00    3.9     0.00001718     -8808.2450194954 -2.09E-02
     4 OT DIIS     0.15E+00    3.9     0.00001245     -8808.2495178921 -4.50E-03
     5 OT DIIS     0.15E+00    4.0     0.00000891     -8808.2522172232 -2.70E-03

  *** SCF run converged in     5 steps ***


  Electronic density on regular grids:      -4096.0000022244       -0.0000022244
  Core density on regular grids:             4096.0000000016        0.0000000016
  Total charge density on r-space grids:       -0.0000022228
  Total charge density g-space grids:          -0.0000022228

  Overlap energy of the core charge distribution:               0.00000353692468
  Self energy of the core charge distribution:             -22442.43995950839599
  Core Hamiltonian energy:                                   6498.75947819840803
  Hartree energy:                                            9237.49744172760256
  Exchange-correlation energy:                              -2102.06918117772102

  Total energy:                                             -8808.25221722318383

 ENERGY| Total FORCE_EVAL ( QS ) energy [a.u.]:            -8808.253875345531924

 MD| ***************************************************************************
 MD| Step number                                                               9
 MD| Time [fs]                                                          4.500000
 MD| Conserved quantity [hartree]                            -0.880615636174E+04
 MD| ---------------------------------------------------------------------------
 MD|                                          Instantaneous             Averages
 MD| CPU time per MD step [s]                     40.868978            72.593254
 MD| Energy drift per atom [K]          -0.804971724404E+02  -0.731848646692E+02
 MD| Potential energy [hartree]         -0.880825387535E+04  -0.880862535879E+04
 MD| Kinetic energy [hartree]            0.209751360988E+01   0.246092564669E+01
 MD| Temperature [K]                             287.661942           337.501815
 MD| ***************************************************************************

 Number of electrons:                                                       4096
 Number of occupied orbitals:                                               2048
 Number of molecular orbitals:                                              2048

 Number of orbital functions:                                              20480
 Number of independent orbital functions:                                  20480

 Extrapolation method: PS Nth order
 Extrapolation order:  3


 SCF WAVEFUNCTION OPTIMIZATION

  ----------------------------------- OT ---------------------------------------
  Minimizer      : DIIS                : direct inversion
                                         in the iterative subspace
                                         using   7 DIIS vectors
                                         safer DIIS on
  Preconditioner : FULL_KINETIC        : inversion of T + eS
  Precond_solver : DEFAULT
  stepsize       :    0.15000000                  energy_gap     :    0.20000000
  eps_taylor     :   0.10000E-15                  max_taylor     :             4
  ----------------------------------- OT ---------------------------------------

  Step     Update method      Time    Convergence         Total energy    Change
  ------------------------------------------------------------------------------
     1 OT DIIS     0.15E+00   18.5     0.00004012     -8808.1037188234 -8.81E+03
     2 OT DIIS     0.15E+00    3.9     0.00003342     -8808.1129198018 -9.20E-03
     3 OT DIIS     0.15E+00    3.9     0.00002049     -8808.1296924797 -1.68E-02
     4 OT DIIS     0.15E+00    3.9     0.00001263     -8808.1379710033 -8.28E-03
     5 OT DIIS     0.15E+00    3.9     0.00001017     -8808.1402135363 -2.24E-03
     6 OT DIIS     0.15E+00    4.0     0.00000715     -8808.1425488254 -2.34E-03

  *** SCF run converged in     6 steps ***


  Electronic density on regular grids:      -4096.0000006755       -0.0000006755
  Core density on regular grids:             4096.0000000007        0.0000000007
  Total charge density on r-space grids:       -0.0000006747
  Total charge density g-space grids:          -0.0000006747

  Overlap energy of the core charge distribution:               0.00000340788264
  Self energy of the core charge distribution:             -22442.43995950839599
  Core Hamiltonian energy:                                   6495.52250742703836
  Hartree energy:                                            9239.94932541649359
  Exchange-correlation energy:                              -2101.17442556840297

  Total energy:                                             -8808.14254882538262

 ENERGY| Total FORCE_EVAL ( QS ) energy [a.u.]:            -8808.143950028845211

 MD| ***************************************************************************
 MD| Step number                                                              10
 MD| Time [fs]                                                          5.000000
 MD| Conserved quantity [hartree]                            -0.880615521376E+04
 MD| ---------------------------------------------------------------------------
 MD|                                          Instantaneous             Averages
 MD| CPU time per MD step [s]                     45.054831            69.839411
 MD| Energy drift per atom [K]          -0.802611680545E+02  -0.738924950078E+02
 MD| Potential energy [hartree]         -0.880814395003E+04  -0.880857721791E+04
 MD| Kinetic energy [hartree]            0.198873627242E+01   0.241370670926E+01
 MD| Temperature [K]                             272.743755           331.026009
 MD| ***************************************************************************

 -------------------------------------------------------------------------------
 -                                                                             -
 -                                DBCSR STATISTICS                             -
 -                                                                             -
 -------------------------------------------------------------------------------
 COUNTER                                    TOTAL       BLAS       SMM       ACC
 flops     9 x    32 x    32          13287555072     100.0%      0.0%      0.0%
 flops    22 x    32 x    32          16240345088     100.0%      0.0%      0.0%
 flops    32 x   512 x   512         678067961856     100.0%      0.0%      0.0%
 flops    96 x   512 x   512        2034203885568     100.0%      0.0%      0.0%
 flops    32 x   512 x  5120        3648037847040     100.0%      0.0%      0.0%
 flops     9 x     9 x   512        5648350040064     100.0%      0.0%      0.0%
 flops   689 x   512 x   512        6450202017792     100.0%      0.0%      0.0%
 flops   400 x   512 x   512        7489349222400     100.0%      0.0%      0.0%
 flops     9 x    22 x   512        7855827369984     100.0%      0.0%      0.0%
 flops    22 x     9 x   512        7866447519744     100.0%      0.0%      0.0%
 flops   649 x   512 x   512        9113601835008     100.0%      0.0%      0.0%
 flops   658 x   512 x   512        9239984603136     100.0%      0.0%      0.0%
 flops   680 x   512 x   512        9548920258560     100.0%      0.0%      0.0%
 flops    96 x   512 x  5120       10944113541120     100.0%      0.0%      0.0%
 flops    22 x    22 x   512       11004752822272     100.0%      0.0%      0.0%
 flops    64 x   512 x   512       11753178005504     100.0%      0.0%      0.0%
 flops   689 x   512 x  5120       14680567316480     100.0%      0.0%      0.0%
 flops   671 x   512 x   512       15704229150720     100.0%      0.0%      0.0%
 flops   400 x   512 x  5120       17045651456000     100.0%      0.0%      0.0%
 flops   649 x   512 x  5120       20742427115520     100.0%      0.0%      0.0%
 flops   658 x   512 x  5120       21030072483840     100.0%      0.0%      0.0%
 flops   680 x   512 x  5120       21733205606400     100.0%      0.0%      0.0%
 flops     9 x    32 x     9       23722505551872     100.0%      0.0%      0.0%
 flops    22 x    32 x     9       33153656684544     100.0%      0.0%      0.0%
 flops     9 x    32 x    22       33153656684544     100.0%      0.0%      0.0%
 flops   671 x   512 x  5120       35742600396800     100.0%      0.0%      0.0%
 flops    22 x    32 x    22       46115724689408     100.0%      0.0%      0.0%
 flops    64 x   512 x  5120       63232656015360     100.0%      0.0%      0.0%
 flops inhomo. stacks             129038769192960     100.0%      0.0%      0.0%
 flops total                       578.400287E+12     100.0%      0.0%      0.0%
 flops max/rank                     36.257058E+12     100.0%      0.0%      0.0%
 matmuls inhomo. stacks                    131520     100.0%      0.0%      0.0%
 matmuls total                        11467383936     100.0%      0.0%      0.0%
 number of processed stacks              12967648     100.0%      0.0%      0.0%
 average stack size                                   884.3       0.0       0.0
 marketing flops                     1.147134E+15
 -------------------------------------------------------------------------------
 # multiplications                           2431
 max memory usage/rank               2.739319E+09
 # max total images/rank                        1
 # max 3D layers                                1
 # MPI messages exchanged                  233376
 MPI messages size (bytes):
  total size                         4.485238E+12
  min size                           0.000000E+00
  max size                         209.715200E+06
  average size                      19.218932E+06
 MPI breakdown and total messages size (bytes):
             size <=      128                1452                        0
       128 < size <=     8192                   0                        0
      8192 < size <=    32768                   0                        0
     32768 < size <=   131072                 132                 17301504
    131072 < size <=  4194304              107616             225687109632
   4194304 < size <= 16777216                   0                        0
  16777216 < size                          124176            4259538544032
 -------------------------------------------------------------------------------
 -                                                                             -
 -                      DBCSR MESSAGE PASSING PERFORMANCE                      -
 -                                                                             -
 -------------------------------------------------------------------------------
 ROUTINE             CALLS      AVE VOLUME [Bytes]
 MP_Bcast               29                     12.
 MP_Allreduce        12987                     67.
 MP_Alltoall          9270                2885193.
 MP_ISend            38852                7270915.
 MP_IRecv            38852                7270413.
 -------------------------------------------------------------------------------

 -------------------------------------------------------------------------------
 -                                                                             -
 -                                GRID STATISTICS                              -
 -                                                                             -
 -------------------------------------------------------------------------------
 LP    KERNEL             BACKEND                              COUNT     PERCENT
 1     collocate ortho    REF                              135745301      21.33%
 1     integrate ortho    REF                              130493488      20.51%
 2     integrate ortho    REF                               88995618      13.99%
 2     collocate ortho    REF                               84560451      13.29%
 0     collocate ortho    REF                               75171698      11.81%
 0     integrate ortho    REF                               68664071      10.79%
 3     integrate ortho    REF                               26282166       4.13%
 3     collocate ortho    REF                               20755016       3.26%
 4     integrate ortho    REF                                3293394       0.52%
 4     collocate ortho    REF                                1638196       0.26%
 0     collocate general  REF                                 270336       0.04%
 1     integrate general  REF                                 270336       0.04%
 5     integrate ortho    REF                                 141925       0.02%
 -------------------------------------------------------------------------------

 MEMORY| Estimated peak process memory [MiB]                                2213

 -------------------------------------------------------------------------------
 -                                                                             -
 -                         MESSAGE PASSING PERFORMANCE                         -
 -                                                                             -
 -------------------------------------------------------------------------------

 ROUTINE             CALLS      AVE VOLUME [Bytes]
 MP_Group                4
 MP_Bcast             3951                  59889.
 MP_Allreduce        10814                   2345.
 MP_Sync                70
 MP_Alltoall          1700               35420218.
 MP_ISendRecv         7620                 241056.
 MP_Wait             19810
 MP_ISend            10600                 728388.
 MP_IRecv            10600                 728388.
 -------------------------------------------------------------------------------


 -------------------------------------------------------------------------------
 -                                                                             -
 -                           R E F E R E N C E S                               -
 -                                                                             -
 -------------------------------------------------------------------------------
 
 CP2K version 8.2, the CP2K developers group (2021).
 CP2K is freely available from https://www.cp2k.org/ .

 Kuehne,Thomas D.; Iannuzzi,Marcella; Del Ben,Mauro;
 Rybkin,Vladimir V.; Seewald,Patrick; Stein,Frederick; Laino,Teodoro;
 Khaliullin,Rustam Z.; Schuett,Ole; Schiffmann,Florian; Golze,Dorothea;
 Wilhelm,Jan; Chulkov,Sergey; Bani-Hashemian,Mohammad Hossein;
 Weber,Valery; Borstnik,Urban; Taillefumier,Mathieu;
 Jakobovits,Alice Shoshana; Lazzaro,Alfio; Pabst,Hans; Mueller,Tiziano;
 Schade,Robert; Guidon,Manuel; Andermatt,Samuel; Holmberg,Nico;
 Schenter,Gregory K.; Hehn,Anna; Bussy,Augustin; Belleflamme,Fabian;
 Tabacchi,Gloria; Gloess,Andreas; Lass,Michael; Bethune,Iain;
 Mundy,Christopher J.; Plessl,Christian; Watkins,Matt;
 VandeVondele,Joost; Krack,Matthias; Hutter,Juerg. 
 The Journal of Chemical Physics, 152 (19), (2020). 
 CP2K: An electronic structure and molecular dynamics software package -
 Quickstep: Efficient and accurate electronic structure calculations.
 https://doi.org/10.1063/5.0007045

 Schuett, Ole; Messmer, Peter; Hutter, Juerg; VandeVondele, Joost. 
 Electronic Structure Calculations on Graphics Processing Units, John
 Wiley & Sons, Ltd, 173-190 (2016). 
 GPU-Accelerated Sparse Matrix-Matrix Multiplication for
 Linear Scaling Density Functional Theory.
 https://doi.org/10.1002/9781118670712.ch8

 Borstnik, U; VandeVondele, J; Weber, V; Hutter, J. 
 PARALLEL COMPUTING, 40 (5-6), 47-58 (2014). 
 Sparse matrix multiplication: The distributed block-compressed sparse
 row library.
 https://doi.org/10.1016/j.parco.2014.03.012

 Hutter, J; Iannuzzi, M; Schiffmann, F; VandeVondele, J. 
 WIREs Comput Mol Sci., 4 (1), 15-25 (2014). 
 CP2K: atomistic simulations of condensed matter systems.
 https://doi.org/10.1002/wcms.1159

 Marek, A; Blum, V; Johanni, R; Havu, V; Lang, B; Auckenthaler, T;
 Heinecke, A; Bungartz, H; Lederer, H. 
 Journal of Physics: Condensed Matter, 26 (21), (2014). 
 The ELPA library: scalable parallel eigenvalue solutions for
 electronic structure
 theory and computational science.
 https://doi.org/10.1088/0953-8984/26/21/213201

 Krack, M. 
 THEORETICAL CHEMISTRY ACCOUNTS, 114 (1-3), 145-152 (2005). 
 Pseudopotentials for H to Kr optimized for gradient-corrected
 exchange-correlation functionals.
 https://doi.org/10.1007/s00214-005-0655-y

 VandeVondele, J; Krack, M; Mohamed, F; Parrinello, M; Chassaing, T;
 Hutter, J. COMPUTER PHYSICS COMMUNICATIONS, 167 (2), 103-128 (2005). 
 QUICKSTEP: Fast and accurate density functional calculations using a
 mixed Gaussian and plane waves approach.
 https://doi.org/10.1016/j.cpc.2004.12.014

 Frigo, M; Johnson, SG. 
 PROCEEDINGS OF THE IEEE, 93 (2), 216-231 (2005). 
 The design and implementation of FFTW3.
 https://doi.org/10.1109/JPROC.2004.840301

 VandeVondele, J; Hutter, J. 
 JOURNAL OF CHEMICAL PHYSICS, 118 (10), 4365-4369 (2003). 
 An efficient orbital transformation method for electronic structure
 calculations.
 https://doi.org/10.1063/1.1543154

 Hartwigsen, C; Goedecker, S; Hutter, J. 
 PHYSICAL REVIEW B, 58 (7), 3641-3662 (1998). 
 Relativistic separable dual-space Gaussian pseudopotentials from H to Rn.
 https://doi.org/10.1103/PhysRevB.58.3641

 Lippert, G; Hutter, J; Parrinello, M. 
 MOLECULAR PHYSICS, 92 (3), 477-487 (1997). 
 A hybrid Gaussian and plane wave density functional scheme.
 https://doi.org/10.1080/002689797170220

 Goedecker, S; Teter, M; Hutter, J. 
 PHYSICAL REVIEW B, 54 (3), 1703-1710 (1996). 
 Separable dual-space Gaussian pseudopotentials.
 https://doi.org/10.1103/PhysRevB.54.1703


 -------------------------------------------------------------------------------
 -                                                                             -
 -                                T I M I N G                                  -
 -                                                                             -
 -------------------------------------------------------------------------------
 SUBROUTINE                       CALLS  ASD         SELF TIME        TOTAL TIME
                                MAXIMUM       AVERAGE  MAXIMUM  AVERAGE  MAXIMUM
 CP2K                                 1  1.0    0.014    0.015  698.704  698.705
 qs_mol_dyn_low                       1  2.0    0.003    0.003  698.406  698.428
 qs_forces                           11  3.9    0.003    0.003  698.281  698.282
 qs_energies                         11  4.9    0.001    0.002  682.757  682.960
 scf_env_do_scf                      11  5.9    0.001    0.001  633.777  633.801
 scf_env_do_scf_inner_loop          116  6.6    0.004    0.012  478.821  478.822
 velocity_verlet                     10  3.0    0.001    0.002  463.068  463.074
 dbcsr_multiply_generic            2431 12.5    0.276    0.292  370.267  374.683
 qs_scf_new_mos                     116  7.6    0.001    0.001  334.726  338.590
 qs_scf_loop_do_ot                  116  8.6    0.001    0.001  334.725  338.588
 ot_scf_mini                        116  9.6    0.005    0.006  312.353  314.286
 multiply_cannon                   2431 13.5    0.356    0.384  275.240  281.256
 multiply_cannon_loop              2431 14.5    0.169    0.186  266.656  275.434
 multiply_cannon_multrec           9724 15.5  256.963  260.384  256.998  260.419
 ot_mini                            116 10.6    0.002    0.002  203.064  205.037
 init_scf_loop                       11  6.9    0.000    0.001  154.353  154.366
 prepare_preconditioner              11  7.9    0.000    0.000  139.589  139.803
 make_preconditioner                 11  8.9    0.000    0.000  139.589  139.803
 make_full_inverse_cholesky          11  9.9    0.001    0.001  135.016  135.499
 rebuild_ks_matrix                  127  8.3    0.001    0.001  105.717  106.580
 qs_ks_build_kohn_sham_matrix       127  9.3    0.021    0.022  105.716  106.579
 qs_ot_get_derivative               116 11.6    0.002    0.002  101.671  103.569
 ot_diis_step                       116 11.6    0.009    0.009  100.696  100.700
 apply_preconditioner_dbcsr         127 12.6    0.000    0.000   96.866   99.806
 apply_single                       127 13.6    0.001    0.001   96.866   99.805
 qs_ks_update_qs_env                127  7.6    0.002    0.002   96.463   97.262
 cp_fm_cholesky_invert               11 10.9   80.897   80.905   80.897   80.905
 make_m2s                          4862 13.5    0.148    0.157   69.671   73.710
 qs_rho_update_rho                  127  7.7    0.001    0.001   61.055   61.441
 calculate_rho_elec                 127  8.7    0.513    0.526   61.054   61.440
 make_images                       4862 14.5    8.620    9.358   48.673   51.708
 cp_fm_cholesky_decompose            22 10.9   44.972   45.050   44.972   45.050
 qs_ot_get_p                        127 10.4    0.001    0.001   38.685   40.355
 sum_up_and_integrate               127 10.3    0.179    0.188   37.623   37.753
 integrate_v_rspace                 127 11.3    0.005    0.005   37.443   37.575
 qs_ot_get_derivative_diag           62 12.2    0.003    0.003   36.459   37.521
 init_scf_run                        11  5.9    0.000    0.001   36.245   36.255
 scf_env_initial_rho_setup           11  6.9    0.000    0.001   36.245   36.255
 grid_collocate_task_list           127  9.7   34.419   35.483   34.419   35.483
 pw_transfer                       1535 11.6    0.098    0.107   33.468   34.652
 fft_wrap_pw1pw2                   1281 12.7    0.011    0.012   32.958   34.142
 wfi_extrapolate                     11  7.9    0.001    0.001   32.755   32.755
 mp_waitall_1                    125898 16.6   24.546   32.371   24.546   32.371
 fft_wrap_pw1pw2_140                519 13.2    1.465    1.487   31.218   32.350
 hybrid_alltoall_any               5031 16.4    5.089   23.657   26.568   31.135
 make_images_data                  4862 15.5    0.085    0.094   26.703   30.723
 fft3d_ps                          1281 14.7   21.570   23.242   29.288   30.484
 dbcsr_make_dense_low              6216 15.5    0.084    0.087   25.357   29.672
 make_dense_data                   6216 16.5   24.816   29.252   25.245   29.559
 calculate_dm_sparse                127  9.5    0.001    0.001   24.917   27.641
 dbcsr_make_images_dense           4236 14.8    0.050    0.055   20.604   24.801
 qs_ot_get_derivative_taylor         54 13.0    0.003    0.004   23.903   24.693
 qs_ot_get_orbitals                 116 10.6    0.001    0.002   23.432   23.829
 grid_integrate_task_list           127 12.3   22.869   23.322   22.869   23.322
 density_rs2pw                      127  9.7    0.006    0.006   20.336   21.609
 qs_ot_p2m_diag                      66 11.2    1.110    1.134   21.406   21.491
 cp_dbcsr_sm_fm_multiply             37  9.5    0.002    0.002   18.734   18.774
 cp_dbcsr_syevd                      66 12.2    0.009    0.010   18.176   18.187
 cp_fm_diag_elpa                     66 13.2    0.001    0.001   17.656   17.662
 cp_fm_diag_elpa_base                66 14.2   17.251   17.325   17.646   17.647
 mp_sum_l                         11831 13.4   10.704   16.124   10.704   16.124
 mp_sum_d                          4422 12.1    9.593   14.995    9.593   14.995
 cp_dbcsr_sm_fm_multiply_core        37 10.5    0.000    0.000   14.779   14.965
 -------------------------------------------------------------------------------

 The number of warnings for this run is : 1
 
 -------------------------------------------------------------------------------
  **** **** ******  **  PROGRAM ENDED AT                 2022-01-17 16:32:00.910
 ***** ** ***  *** **   PROGRAM RAN ON                                 nid006823
 **    ****   ******    PROGRAM RAN BY                                    hjudge
 ***** **    ** ** **   PROGRAM PROCESS ID                                203092
  **** **  *******  **  PROGRAM STOPPED IN /mnt/lustre/a2fs-work2/work/z19/z19/h
                                           judge/CUG/archer2/CPU/CP2K/H2O-512/1N
                                           ODES/128CPN/8THREADS
