 DBCSR| CPU Multiplication driver                                           BLAS
 DBCSR| Multrec recursion limit                                              512
 DBCSR| Multiplication stack size                                           1000
 DBCSR| Maximum elements for images                                    UNLIMITED
 DBCSR| Multiplicative factor virtual images                                   1
 DBCSR| Use multiplication densification                                       T
 DBCSR| Multiplication size stacks                                             3
 DBCSR| Use memory pool for CPU allocation                                     F
 DBCSR| Number of 3D layers                                               SINGLE
 DBCSR| Use MPI memory allocation                                              F
 DBCSR| Use RMA algorithm                                                      F
 DBCSR| Use Communication thread                                               T
 DBCSR| Communication thread load                                             30
 DBCSR| MPI: My node id                                                        0
 DBCSR| MPI: Number of nodes                                                  32
 DBCSR| OMP: Current number of threads                                        16
 DBCSR| OMP: Max number of threads                                            16
 DBCSR| Split modifier for TAS multiplication algorithm                  1.0E+00


  **** **** ******  **  PROGRAM STARTED AT               2022-01-17 17:11:33.824
 ***** ** ***  *** **   PROGRAM STARTED ON                             nid004992
 **    ****   ******    PROGRAM STARTED BY                                hjudge
 ***** **    ** ** **   PROGRAM PROCESS ID                                190138
  **** **  *******  **  PROGRAM STARTED IN /mnt/lustre/a2fs-work2/work/z19/z19/h
                                           judge/CUG/archer2/CPU/CP2K/H2O-512/4N
                                           ODES/128CPN/16THREADS

 CP2K| version string:                                          CP2K version 8.2
 CP2K| source code revision number:                                  git:310b7ab
 CP2K| cp2kflags: omp libint fftw3 libxc elpa parallel mpi3 scalapack plumed2   
 CP2K| is freely available from                            https://www.cp2k.org/
 CP2K| Program compiled at                          Thu Dec  2 10:30:45 GMT 2021
 CP2K| Program compiled on                                                  ln02
 CP2K| Program compiled for                                              ARCHER2
 CP2K| Data directory path         /work/y07/shared/apps/core/cp2k/cp2k-8.2/data
 CP2K| Input file name                                               H2O-512.inp

 GLOBAL| Force Environment number                                              1
 GLOBAL| Basis set file name                                      GTH_BASIS_SETS
 GLOBAL| Potential file name                                           POTENTIAL
 GLOBAL| MM Potential file name                                     MM_POTENTIAL
 GLOBAL| Coordinate file name                                      __STD_INPUT__
 GLOBAL| Method name                                                        CP2K
 GLOBAL| Project name                                                    H2O-512
 GLOBAL| Run type                                                             MD
 GLOBAL| FFT library                                                       FFTW3
 GLOBAL| Diagonalization library                                            ELPA
 GLOBAL| Minimum number of eigenvectors for ELPA usage                        16
 GLOBAL| Orthonormality check for eigenvectors                          DISABLED
 GLOBAL| Matrix multiplication library                                    SCALAP
 GLOBAL| All-to-all communication in single precision                          F
 GLOBAL| FFTs using library dependent lengths                                  F
 GLOBAL| Grid backend                                                       AUTO
 GLOBAL| Global print level                                                  LOW
 GLOBAL| MPI I/O enabled                                                       T
 GLOBAL| Total number of message passing processes                            32
 GLOBAL| Number of threads for this process                                   16
 GLOBAL| This output is from process                                           0
 GLOBAL| CPU model name                          AMD EPYC 7742 64-Core Processor
 GLOBAL| CPUID                                                              1002

 MEMORY| system memory details [Kb]
 MEMORY|                        rank 0           min           max       average
 MEMORY| MemTotal            263528088     263528084     263528088     263528087
 MEMORY| MemFree             252511512     251938036     252755648     252342688
 MEMORY| Buffers                 42388         28624         42388         34705
 MEMORY| Cached                1050392       1000148       1523004       1268408
 MEMORY| Slab                  1569596       1543464       1573572       1561291
 MEMORY| SReclaimable            80892         74320         93112         85179
 MEMORY| MemLikelyFree       253685184     253582056     253865440     253730980


 GENERATE|  Preliminary Number of Bonds generated:                             0
 GENERATE|  Achieved consistency in connectivity generation.

 *******************************************************************************
 *******************************************************************************
 **                                                                           **
 **     #####                         ##              ##                      **
 **    ##   ##            ##          ##              ##                      **
 **   ##     ##                       ##            ######                    **
 **   ##     ##  ##   ##  ##   #####  ##  ##   ####   ##    #####    #####    **
 **   ##     ##  ##   ##  ##  ##      ## ##   ##      ##   ##   ##  ##   ##   **
 **   ##  ## ##  ##   ##  ##  ##      ####     ###    ##   ######   ######    **
 **    ##  ###   ##   ##  ##  ##      ## ##      ##   ##   ##       ##        **
 **     #######   #####   ##   #####  ##  ##  ####    ##    #####   ##        **
 **           ##                                                    ##        **
 **                                                                           **
 **                                                ... make the atoms dance   **
 **                                                                           **
 **            Copyright (C) by CP2K developers group (2000-2021)             **
 **                      J. Chem. Phys. 152, 194103 (2020)                    **
 **                                                                           **
 *******************************************************************************


 TOTAL NUMBERS AND MAXIMUM NUMBERS

  Total number of            - Atomic kinds:                                   2
                             - Atoms:                                       1536
                             - Shell sets:                                  3072
                             - Shells:                                      9216
                             - Primitive Cartesian functions:              10752
                             - Cartesian basis functions:                  21504
                             - Spherical basis functions:                  20480

  Maximum angular momentum of- Orbital basis functions:                        2
                             - Local part of the GTH pseudopotential:          2
                             - Non-local part of the GTH pseudopotential:      0


 SCF PARAMETERS         Density guess:                                    ATOMIC
                        --------------------------------------------------------
                        max_scf:                                              50
                        max_scf_history:                                       0
                        max_diis:                                              4
                        --------------------------------------------------------
                        eps_scf:                                        1.00E-05
                        eps_scf_history:                                0.00E+00
                        eps_diis:                                       1.00E-01
                        eps_eigval:                                     1.00E-05
                        --------------------------------------------------------
                        level_shift [a.u.]:                                 0.00
                        --------------------------------------------------------
                        No outer SCF

 MD_PAR| Molecular dynamics protocol (MD input parameters)
 MD_PAR| Ensemble type                                                       NVE
 MD_PAR| Number of time steps                                                 10
 MD_PAR| Time step [fs]                                                 0.500000
 MD_PAR| Temperature [K]                                              300.000000
 MD_PAR| Temperature tolerance [K]                                      0.000000
 MD_PAR| Print MD information every                                    1 step(s)
 MD_PAR| File type   Print frequency [steps]                          File names
 MD_PAR| Coordinates          1                                H2O-512-pos-1.xyz
 MD_PAR| Velocities           1                                H2O-512-vel-1.xyz
 MD_PAR| Energies             1                                   H2O-512-1.ener
 MD_PAR| Dump                20                                H2O-512-1.restart

 ROT| Rotational analysis information
 ROT| Principal axes and moments of inertia [a.u.]
 ROT|                           1                   2                   3
 ROT| Eigenvalues      6.12011925703E+09   6.17734003456E+09   6.32378668800E+09
 ROT|      x              0.229702356692      0.883899672739      0.407379670409
 ROT|      y              0.711719446246      0.132949289019     -0.689768016354
 ROT|      z              0.663846561462     -0.448381372362      0.598549820611
 ROT| Number of rotovibrational vectors                                        6

 DOF| Calculation of degrees of freedom
 DOF| Number of atoms                                                       1536
 DOF| Number of intramolecular constraints                                     0
 DOF| Number of intermolecular constraints                                     0
 DOF| Invariants (translations + rotations)                                    3
 DOF| Degrees of freedom                                                    4605

 DOF| Restraints information
 DOF| Number of intramolecular restraints                                      0
 DOF| Number of intermolecular restraints                                      0

 MD_VEL| Velocities initialization
 MD_VEL| Initial temperature [K]                                      300.000000
 MD_VEL| COM velocity             0.0000000000    -0.0000000000     0.0000000000

 Number of electrons:                                                       4096
 Number of occupied orbitals:                                               2048
 Number of molecular orbitals:                                              2048

 Number of orbital functions:                                              20480
 Number of independent orbital functions:                                  20480

 Extrapolation method: initial_guess


 SCF WAVEFUNCTION OPTIMIZATION

  ----------------------------------- OT ---------------------------------------
  Minimizer      : DIIS                : direct inversion
                                         in the iterative subspace
                                         using   7 DIIS vectors
                                         safer DIIS on
  Preconditioner : FULL_KINETIC        : inversion of T + eS
  Precond_solver : DEFAULT
  stepsize       :    0.15000000                  energy_gap     :    0.20000000
  eps_taylor     :   0.10000E-15                  max_taylor     :             4
  ----------------------------------- OT ---------------------------------------

  Step     Update method      Time    Convergence         Total energy    Change
  ------------------------------------------------------------------------------
     1 OT DIIS     0.15E+00    8.1     0.00467324     -8480.4728425690 -8.48E+03
     2 OT DIIS     0.15E+00    1.9     0.00318266     -8587.4488310143 -1.07E+02
     3 OT DIIS     0.15E+00    1.9     0.00347210     -8644.7931966768 -5.73E+01
     4 OT DIIS     0.15E+00    1.9     0.00204380     -8678.2157923836 -3.34E+01
     5 OT DIIS     0.15E+00    1.9     0.00148292     -8717.4624183879 -3.92E+01
     6 OT DIIS     0.15E+00    1.9     0.00119954     -8738.7795043572 -2.13E+01
     7 OT DIIS     0.15E+00    1.9     0.00099038     -8755.0185947301 -1.62E+01
     8 OT DIIS     0.15E+00    1.9     0.00079894     -8767.5347825454 -1.25E+01
     9 OT DIIS     0.15E+00    1.9     0.00061581     -8780.1862563835 -1.27E+01
    10 OT DIIS     0.15E+00    1.9     0.00048147     -8788.6147471043 -8.43E+00
    11 OT DIIS     0.15E+00    1.9     0.00038278     -8794.1215228889 -5.51E+00
    12 OT DIIS     0.15E+00    1.9     0.00031960     -8797.5363589594 -3.41E+00
    13 OT DIIS     0.15E+00    2.0     0.00026435     -8799.9344030908 -2.40E+00
    14 OT DIIS     0.15E+00    1.9     0.00023004     -8801.7089305035 -1.77E+00
    15 OT DIIS     0.15E+00    2.0     0.00019592     -8803.0697888564 -1.36E+00
    16 OT DIIS     0.15E+00    1.9     0.00016642     -8804.2000843411 -1.13E+00
    17 OT DIIS     0.15E+00    2.0     0.00014164     -8805.0506655806 -8.51E-01
    18 OT DIIS     0.15E+00    1.9     0.00012638     -8805.6725421207 -6.22E-01
    19 OT DIIS     0.15E+00    1.9     0.00010717     -8806.2171485645 -5.45E-01
    20 OT DIIS     0.15E+00    1.9     0.00009868     -8806.5290018964 -3.12E-01
    21 OT DIIS     0.15E+00    1.9     0.00008484     -8806.8772741195 -3.48E-01
    22 OT DIIS     0.15E+00    1.9     0.00007717     -8807.0943334427 -2.17E-01
    23 OT DIIS     0.15E+00    1.9     0.00006815     -8807.2974129499 -2.03E-01
    24 OT DIIS     0.15E+00    1.9     0.00006019     -8807.4529078233 -1.55E-01
    25 OT DIIS     0.15E+00    1.9     0.00005010     -8807.5989834234 -1.46E-01
    26 OT DIIS     0.15E+00    1.9     0.00004000     -8807.6989662228 -1.00E-01
    27 OT DIIS     0.15E+00    1.9     0.00003462     -8807.7827122402 -8.37E-02
    28 OT DIIS     0.15E+00    1.9     0.00003071     -8807.7824932500  2.19E-04
    29 OT DIIS     0.15E+00    1.9     0.00002690     -8807.8200993195 -3.76E-02
    30 OT DIIS     0.15E+00    1.9     0.00002500     -8807.8399634016 -1.99E-02
    31 OT DIIS     0.15E+00    1.9     0.00002395     -8807.8566460922 -1.67E-02
    32 OT DIIS     0.15E+00    1.9     0.00002328     -8807.8682689643 -1.16E-02
    33 OT DIIS     0.15E+00    1.9     0.00002304     -8807.8827275965 -1.45E-02
    34 OT DIIS     0.15E+00    1.9     0.00002300     -8807.8854890296 -2.76E-03
    35 OT SD       0.15E+00    1.9     0.00002301     -8807.8907467596 -5.26E-03
    36 OT SD       0.15E+00    1.9     0.00002308     -8807.8940817096 -3.33E-03
    37 OT SD       0.15E+00    1.9     0.00002318     -8807.8974407043 -3.36E-03
    38 OT SD       0.15E+00    1.9     0.00002329     -8807.9008284718 -3.39E-03
    39 OT SD       0.15E+00    1.9     0.00002341     -8807.9042491083 -3.42E-03
    40 OT SD       0.15E+00    2.0     0.00002354     -8807.9077063659 -3.46E-03
    41 OT SD       0.15E+00    1.9     0.00002369     -8807.9112037365 -3.50E-03
    42 OT SD       0.15E+00    1.9     0.00002384     -8807.9147444866 -3.54E-03
    43 OT SD       0.15E+00    1.9     0.00002400     -8807.9183316715 -3.59E-03
    44 OT SD       0.15E+00    1.9     0.00002417     -8807.9219681410 -3.64E-03
    45 OT DIIS     0.15E+00    1.9     0.00002435     -8807.9256565391 -3.69E-03
    46 OT DIIS     0.15E+00    1.9     0.00004957     -8807.9132255533  1.24E-02
    47 OT SD       0.15E+00    1.9     0.00005082     -8807.9140405107 -8.15E-04
    48 OT SD       0.15E+00    1.9     0.00004010     -8807.9282621045 -1.42E-02
    49 OT SD       0.15E+00    1.9     0.00003555     -8807.9377202537 -9.46E-03
    50 OT SD       0.15E+00    1.9     0.00003333     -8807.9453839965 -7.66E-03

  Leaving inner SCF loop after reaching    50 steps.


  Electronic density on regular grids:      -4096.0000074788       -0.0000074788
  Core density on regular grids:             4095.9999999927       -0.0000000073
  Total charge density on r-space grids:       -0.0000074861
  Total charge density g-space grids:          -0.0000074861

  Overlap energy of the core charge distribution:               0.00004500798551
  Self energy of the core charge distribution:             -22442.43995950839599
  Core Hamiltonian energy:                                   6603.78836174072239
  Hartree energy:                                            9161.23688661045526
  Exchange-correlation energy:                              -2130.53071784725125

  Total energy:                                             -8807.94538399648445

 *** WARNING in qs_scf.F:576 :: SCF run NOT converged ***


 ENERGY| Total FORCE_EVAL ( QS ) energy [a.u.]:            -8807.952235664433829

 MD_INI| MD initialization
 MD_INI| Potential energy [hartree]                          -0.880795223566E+04
 MD_INI| Kinetic energy [hartree]                             0.218747769838E+01
 MD_INI| Temperature [K]                                              300.000000
 MD_INI| Cell volume [bohr^3]                                 1.037187315243E+05
 MD_INI| Cell volume [ang^3]                                  1.536953010365E+04
 MD_INI| Cell lengths [bohr]      4.69842608E+01  4.69842608E+01  4.69842608E+01
 MD_INI| Cell lengths [ang]       2.48630000E+01  2.48630000E+01  2.48630000E+01
 MD_INI| Cell angles [deg]        9.00000000E+01  9.00000000E+01  9.00000000E+01

 Number of electrons:                                                       4096
 Number of occupied orbitals:                                               2048
 Number of molecular orbitals:                                              2048

 Number of orbital functions:                                              20480
 Number of independent orbital functions:                                  20480

 Extrapolation method: PS Nth order
 Extrapolation order:  0


 SCF WAVEFUNCTION OPTIMIZATION

  ----------------------------------- OT ---------------------------------------
  Minimizer      : DIIS                : direct inversion
                                         in the iterative subspace
                                         using   7 DIIS vectors
                                         safer DIIS on
  Preconditioner : FULL_KINETIC        : inversion of T + eS
  Precond_solver : DEFAULT
  stepsize       :    0.15000000                  energy_gap     :    0.20000000
  eps_taylor     :   0.10000E-15                  max_taylor     :             4
  ----------------------------------- OT ---------------------------------------

  Step     Update method      Time    Convergence         Total energy    Change
  ------------------------------------------------------------------------------
     1 OT DIIS     0.15E+00    7.7     0.00010168     -8807.9542866213 -8.81E+03
     2 OT DIIS     0.15E+00    1.7     0.00007399     -8808.0090374396 -5.48E-02
     3 OT DIIS     0.15E+00    1.6     0.00005492     -8808.0644135773 -5.54E-02
     4 OT DIIS     0.15E+00    1.7     0.00004932     -8808.1018066385 -3.74E-02
     5 OT DIIS     0.15E+00    1.9     0.00004590     -8808.1446866175 -4.29E-02
     6 OT DIIS     0.15E+00    1.9     0.00004350     -8808.1867683864 -4.21E-02
     7 OT DIIS     0.15E+00    1.9     0.00003916     -8808.2469359319 -6.02E-02
     8 OT DIIS     0.15E+00    2.0     0.00002837     -8808.3269623489 -8.00E-02
     9 OT DIIS     0.15E+00    1.9     0.00002031     -8808.3584910760 -3.15E-02
    10 OT DIIS     0.15E+00    2.0     0.00001291     -8808.3784923561 -2.00E-02
    11 OT DIIS     0.15E+00    1.9     0.00001028     -8808.3792298241 -7.37E-04
    12 OT DIIS     0.15E+00    1.9     0.00000706     -8808.3827997665 -3.57E-03

  *** SCF run converged in    12 steps ***


  Electronic density on regular grids:      -4096.0000079114       -0.0000079114
  Core density on regular grids:             4095.9999999916       -0.0000000084
  Total charge density on r-space grids:       -0.0000079198
  Total charge density g-space grids:          -0.0000079198

  Overlap energy of the core charge distribution:               0.00004378128934
  Self energy of the core charge distribution:             -22442.43995950839599
  Core Hamiltonian energy:                                   6601.18450576601845
  Hartree energy:                                            9162.94063045186340
  Exchange-correlation energy:                              -2130.06802025731986

  Total energy:                                             -8808.38279976654667

 ENERGY| Total FORCE_EVAL ( QS ) energy [a.u.]:            -8808.383474423204461

 MD| ***************************************************************************
 MD| Step number                                                               1
 MD| Time [fs]                                                          0.500000
 MD| Conserved quantity [hartree]                            -0.880615756517E+04
 MD| ---------------------------------------------------------------------------
 MD|                                          Instantaneous             Averages
 MD| CPU time per MD step [s]                    136.423812           136.423812
 MD| Energy drift per atom [K]          -0.807542687548E+02   0.000000000000E+00
 MD| Potential energy [hartree]         -0.880838347442E+04  -0.880838347442E+04
 MD| Kinetic energy [hartree]            0.222590925229E+01   0.222590925229E+01
 MD| Temperature [K]                             305.270667           305.270667
 MD| ***************************************************************************

 Number of electrons:                                                       4096
 Number of occupied orbitals:                                               2048
 Number of molecular orbitals:                                              2048

 Number of orbital functions:                                              20480
 Number of independent orbital functions:                                  20480

 Extrapolation method: PS Nth order
 Extrapolation order:  1


 SCF WAVEFUNCTION OPTIMIZATION

  ----------------------------------- OT ---------------------------------------
  Minimizer      : DIIS                : direct inversion
                                         in the iterative subspace
                                         using   7 DIIS vectors
                                         safer DIIS on
  Preconditioner : FULL_KINETIC        : inversion of T + eS
  Precond_solver : DEFAULT
  stepsize       :    0.15000000                  energy_gap     :    0.20000000
  eps_taylor     :   0.10000E-15                  max_taylor     :             4
  ----------------------------------- OT ---------------------------------------

  Step     Update method      Time    Convergence         Total energy    Change
  ------------------------------------------------------------------------------
     1 OT DIIS     0.15E+00    7.7     0.00008001     -8808.4313328830 -8.81E+03
     2 OT DIIS     0.15E+00    1.7     0.00005270     -8808.4637652928 -3.24E-02
     3 OT DIIS     0.15E+00    1.7     0.00003321     -8808.4886649840 -2.49E-02
     4 OT DIIS     0.15E+00    1.7     0.00002250     -8808.5029561732 -1.43E-02
     5 OT DIIS     0.15E+00    1.7     0.00001406     -8808.5119348592 -8.98E-03
     6 OT DIIS     0.15E+00    1.7     0.00000837     -8808.5159258829 -3.99E-03

  *** SCF run converged in     6 steps ***


  Electronic density on regular grids:      -4096.0000084044       -0.0000084044
  Core density on regular grids:             4095.9999999941       -0.0000000059
  Total charge density on r-space grids:       -0.0000084103
  Total charge density g-space grids:          -0.0000084103

  Overlap energy of the core charge distribution:               0.00003948971969
  Self energy of the core charge distribution:             -22442.43995950839599
  Core Hamiltonian energy:                                   6592.75636415869940
  Hartree energy:                                            9168.97931038371644
  Exchange-correlation energy:                              -2127.81168040660623

  Total energy:                                             -8808.51592588286803

 ENERGY| Total FORCE_EVAL ( QS ) energy [a.u.]:            -8808.517237069972907

 MD| ***************************************************************************
 MD| Step number                                                               2
 MD| Time [fs]                                                          1.000000
 MD| Conserved quantity [hartree]                            -0.880616182466E+04
 MD| ---------------------------------------------------------------------------
 MD|                                          Instantaneous             Averages
 MD| CPU time per MD step [s]                     18.520700            77.472256
 MD| Energy drift per atom [K]          -0.816299455688E+02  -0.408149727844E+02
 MD| Potential energy [hartree]         -0.880851723707E+04  -0.880845035575E+04
 MD| Kinetic energy [hartree]            0.235541240706E+01   0.229066082967E+01
 MD| Temperature [K]                             323.031281           314.150974
 MD| ***************************************************************************

 Number of electrons:                                                       4096
 Number of occupied orbitals:                                               2048
 Number of molecular orbitals:                                              2048

 Number of orbital functions:                                              20480
 Number of independent orbital functions:                                  20480

 Extrapolation method: PS Nth order
 Extrapolation order:  2


 SCF WAVEFUNCTION OPTIMIZATION

  ----------------------------------- OT ---------------------------------------
  Minimizer      : DIIS                : direct inversion
                                         in the iterative subspace
                                         using   7 DIIS vectors
                                         safer DIIS on
  Preconditioner : FULL_KINETIC        : inversion of T + eS
  Precond_solver : DEFAULT
  stepsize       :    0.15000000                  energy_gap     :    0.20000000
  eps_taylor     :   0.10000E-15                  max_taylor     :             4
  ----------------------------------- OT ---------------------------------------

  Step     Update method      Time    Convergence         Total energy    Change
  ------------------------------------------------------------------------------
     1 OT DIIS     0.15E+00    7.8     0.00008994     -8808.3716131815 -8.81E+03
     2 OT DIIS     0.15E+00    1.7     0.00007431     -8808.4173729637 -4.58E-02
     3 OT DIIS     0.15E+00    1.7     0.00005878     -8808.4862271778 -6.89E-02
     4 OT DIIS     0.15E+00    1.7     0.00004979     -8808.5437420736 -5.75E-02
     5 OT DIIS     0.15E+00    1.7     0.00004006     -8808.6034039577 -5.97E-02
     6 OT DIIS     0.15E+00    1.9     0.00002840     -8808.6545608024 -5.12E-02
     7 OT DIIS     0.15E+00    1.9     0.00001854     -8808.6821069073 -2.75E-02
     8 OT DIIS     0.15E+00    2.0     0.00001251     -8808.6920746998 -9.97E-03
     9 OT DIIS     0.15E+00    1.9     0.00000891     -8808.6959137859 -3.84E-03

  *** SCF run converged in     9 steps ***


  Electronic density on regular grids:      -4096.0000081507       -0.0000081507
  Core density on regular grids:             4095.9999999985       -0.0000000015
  Total charge density on r-space grids:       -0.0000081522
  Total charge density g-space grids:          -0.0000081522

  Overlap energy of the core charge distribution:               0.00003222717279
  Self energy of the core charge distribution:             -22442.43995950839599
  Core Hamiltonian energy:                                   6579.97345065465925
  Hartree energy:                                            9178.11098338587362
  Exchange-correlation energy:                              -2124.34042054522615

  Total energy:                                             -8808.69591378591576

 ENERGY| Total FORCE_EVAL ( QS ) energy [a.u.]:            -8808.697760533214023

 MD| ***************************************************************************
 MD| Step number                                                               3
 MD| Time [fs]                                                          1.500000
 MD| Conserved quantity [hartree]                            -0.880616480411E+04
 MD| ---------------------------------------------------------------------------
 MD|                                          Instantaneous             Averages
 MD| CPU time per MD step [s]                     25.176560            60.040357
 MD| Energy drift per atom [K]          -0.822424679922E+02  -0.546241378537E+02
 MD| Potential energy [hartree]         -0.880869776053E+04  -0.880853282401E+04
 MD| Kinetic energy [hartree]            0.253295642135E+01   0.237142602690E+01
 MD| Temperature [K]                             347.380422           325.227457
 MD| ***************************************************************************

 Number of electrons:                                                       4096
 Number of occupied orbitals:                                               2048
 Number of molecular orbitals:                                              2048

 Number of orbital functions:                                              20480
 Number of independent orbital functions:                                  20480

 Extrapolation method: PS Nth order
 Extrapolation order:  3


 SCF WAVEFUNCTION OPTIMIZATION

  ----------------------------------- OT ---------------------------------------
  Minimizer      : DIIS                : direct inversion
                                         in the iterative subspace
                                         using   7 DIIS vectors
                                         safer DIIS on
  Preconditioner : FULL_KINETIC        : inversion of T + eS
  Precond_solver : DEFAULT
  stepsize       :    0.15000000                  energy_gap     :    0.20000000
  eps_taylor     :   0.10000E-15                  max_taylor     :             4
  ----------------------------------- OT ---------------------------------------

  Step     Update method      Time    Convergence         Total energy    Change
  ------------------------------------------------------------------------------
     1 OT DIIS     0.15E+00    7.8     0.00008299     -8808.7601196335 -8.81E+03
     2 OT DIIS     0.15E+00    1.7     0.00005686     -8808.7956339850 -3.55E-02
     3 OT DIIS     0.15E+00    1.7     0.00003613     -8808.8258258906 -3.02E-02
     4 OT DIIS     0.15E+00    1.7     0.00002270     -8808.8440416880 -1.82E-02
     5 OT DIIS     0.15E+00    1.7     0.00001489     -8808.8523353490 -8.29E-03
     6 OT DIIS     0.15E+00    1.7     0.00000969     -8808.8563589375 -4.02E-03

  *** SCF run converged in     6 steps ***


  Electronic density on regular grids:      -4096.0000085803       -0.0000085803
  Core density on regular grids:             4096.0000000009        0.0000000009
  Total charge density on r-space grids:       -0.0000085795
  Total charge density g-space grids:          -0.0000085795

  Overlap energy of the core charge distribution:               0.00002346605958
  Self energy of the core charge distribution:             -22442.43995950839599
  Core Hamiltonian energy:                                   6564.27150234957935
  Hartree energy:                                            9189.38292121183622
  Exchange-correlation energy:                              -2120.07084645658142

  Total energy:                                             -8808.85635893750259

 ENERGY| Total FORCE_EVAL ( QS ) energy [a.u.]:            -8808.858126059476490

 MD| ***************************************************************************
 MD| Step number                                                               4
 MD| Time [fs]                                                          2.000000
 MD| Conserved quantity [hartree]                            -0.880616980824E+04
 MD| ---------------------------------------------------------------------------
 MD|                                          Instantaneous             Averages
 MD| CPU time per MD step [s]                     19.484877            49.901487
 MD| Energy drift per atom [K]          -0.832712287895E+02  -0.617859105877E+02
 MD| Potential energy [hartree]         -0.880885812606E+04  -0.880861414952E+04
 MD| Kinetic energy [hartree]            0.268831782016E+01   0.245064897521E+01
 MD| Temperature [K]                             368.687346           336.092429
 MD| ***************************************************************************

 Number of electrons:                                                       4096
 Number of occupied orbitals:                                               2048
 Number of molecular orbitals:                                              2048

 Number of orbital functions:                                              20480
 Number of independent orbital functions:                                  20480

 Extrapolation method: PS Nth order
 Extrapolation order:  3


 SCF WAVEFUNCTION OPTIMIZATION

  ----------------------------------- OT ---------------------------------------
  Minimizer      : DIIS                : direct inversion
                                         in the iterative subspace
                                         using   7 DIIS vectors
                                         safer DIIS on
  Preconditioner : FULL_KINETIC        : inversion of T + eS
  Precond_solver : DEFAULT
  stepsize       :    0.15000000                  energy_gap     :    0.20000000
  eps_taylor     :   0.10000E-15                  max_taylor     :             4
  ----------------------------------- OT ---------------------------------------

  Step     Update method      Time    Convergence         Total energy    Change
  ------------------------------------------------------------------------------
     1 OT DIIS     0.15E+00    7.8     0.00005398     -8808.8521867222 -8.81E+03
     2 OT DIIS     0.15E+00    1.7     0.00004360     -8808.8685864497 -1.64E-02
     3 OT DIIS     0.15E+00    1.9     0.00002876     -8808.8948292995 -2.62E-02
     4 OT DIIS     0.15E+00    1.9     0.00002104     -8808.9082270491 -1.34E-02
     5 OT DIIS     0.15E+00    2.0     0.00001316     -8808.9185293586 -1.03E-02
     6 OT DIIS     0.15E+00    1.9     0.00000843     -8808.9223756515 -3.85E-03

  *** SCF run converged in     6 steps ***


  Electronic density on regular grids:      -4096.0000071800       -0.0000071800
  Core density on regular grids:             4095.9999999999       -0.0000000001
  Total charge density on r-space grids:       -0.0000071801
  Total charge density g-space grids:          -0.0000071801

  Overlap energy of the core charge distribution:               0.00001548078467
  Self energy of the core charge distribution:             -22442.43995950839599
  Core Hamiltonian energy:                                   6547.40957096855709
  Hartree energy:                                            9201.58659276860999
  Exchange-correlation energy:                              -2115.47859536105352

  Total energy:                                             -8808.92237565149662

 ENERGY| Total FORCE_EVAL ( QS ) energy [a.u.]:            -8808.923937802421278

 MD| ***************************************************************************
 MD| Step number                                                               5
 MD| Time [fs]                                                          2.500000
 MD| Conserved quantity [hartree]                            -0.880617229806E+04
 MD| ---------------------------------------------------------------------------
 MD|                                          Instantaneous             Averages
 MD| CPU time per MD step [s]                     20.489019            44.018994
 MD| Energy drift per atom [K]          -0.837830922590E+02  -0.661853469219E+02
 MD| Potential energy [hartree]         -0.880892393780E+04  -0.880867610718E+04
 MD| Kinetic energy [hartree]            0.275163974230E+01   0.251084712863E+01
 MD| Temperature [K]                             377.371583           344.348260
 MD| ***************************************************************************

 Number of electrons:                                                       4096
 Number of occupied orbitals:                                               2048
 Number of molecular orbitals:                                              2048

 Number of orbital functions:                                              20480
 Number of independent orbital functions:                                  20480

 Extrapolation method: PS Nth order
 Extrapolation order:  3


 SCF WAVEFUNCTION OPTIMIZATION

  ----------------------------------- OT ---------------------------------------
  Minimizer      : DIIS                : direct inversion
                                         in the iterative subspace
                                         using   7 DIIS vectors
                                         safer DIIS on
  Preconditioner : FULL_KINETIC        : inversion of T + eS
  Precond_solver : DEFAULT
  stepsize       :    0.15000000                  energy_gap     :    0.20000000
  eps_taylor     :   0.10000E-15                  max_taylor     :             4
  ----------------------------------- OT ---------------------------------------

  Step     Update method      Time    Convergence         Total energy    Change
  ------------------------------------------------------------------------------
     1 OT DIIS     0.15E+00    7.8     0.00004459     -8808.8152211063 -8.81E+03
     2 OT DIIS     0.15E+00    1.7     0.00003657     -8808.8265148982 -1.13E-02
     3 OT DIIS     0.15E+00    1.7     0.00002088     -8808.8466634307 -2.01E-02
     4 OT DIIS     0.15E+00    1.7     0.00001310     -8808.8539195317 -7.26E-03
     5 OT DIIS     0.15E+00    1.7     0.00000885     -8808.8567203000 -2.80E-03

  *** SCF run converged in     5 steps ***


  Electronic density on regular grids:      -4096.0000062625       -0.0000062625
  Core density on regular grids:             4095.9999999983       -0.0000000017
  Total charge density on r-space grids:       -0.0000062643
  Total charge density g-space grids:          -0.0000062643

  Overlap energy of the core charge distribution:               0.00000971622618
  Self energy of the core charge distribution:             -22442.43995950839599
  Core Hamiltonian energy:                                   6531.17261762714043
  Hartree energy:                                            9213.44177528629007
  Exchange-correlation energy:                              -2111.03116342124486

  Total energy:                                             -8808.85672029998386

 ENERGY| Total FORCE_EVAL ( QS ) energy [a.u.]:            -8808.858097356294820

 MD| ***************************************************************************
 MD| Step number                                                               6
 MD| Time [fs]                                                          3.000000
 MD| Conserved quantity [hartree]                            -0.880617012066E+04
 MD| ---------------------------------------------------------------------------
 MD|                                          Instantaneous             Averages
 MD| CPU time per MD step [s]                     17.899264            39.665705
 MD| Energy drift per atom [K]          -0.833354576959E+02  -0.690436987176E+02
 MD| Potential energy [hartree]         -0.880885809736E+04  -0.880870643887E+04
 MD| Kinetic energy [hartree]            0.268797669291E+01   0.254036872268E+01
 MD| Temperature [K]                             368.640562           348.396977
 MD| ***************************************************************************

 Number of electrons:                                                       4096
 Number of occupied orbitals:                                               2048
 Number of molecular orbitals:                                              2048

 Number of orbital functions:                                              20480
 Number of independent orbital functions:                                  20480

 Extrapolation method: PS Nth order
 Extrapolation order:  3


 SCF WAVEFUNCTION OPTIMIZATION

  ----------------------------------- OT ---------------------------------------
  Minimizer      : DIIS                : direct inversion
                                         in the iterative subspace
                                         using   7 DIIS vectors
                                         safer DIIS on
  Preconditioner : FULL_KINETIC        : inversion of T + eS
  Precond_solver : DEFAULT
  stepsize       :    0.15000000                  energy_gap     :    0.20000000
  eps_taylor     :   0.10000E-15                  max_taylor     :             4
  ----------------------------------- OT ---------------------------------------

  Step     Update method      Time    Convergence         Total energy    Change
  ------------------------------------------------------------------------------
     1 OT DIIS     0.15E+00    7.8     0.00004551     -8808.6384728414 -8.81E+03
     2 OT DIIS     0.15E+00    1.7     0.00003729     -8808.6502397859 -1.18E-02
     3 OT DIIS     0.15E+00    1.7     0.00002023     -8808.6710767079 -2.08E-02
     4 OT DIIS     0.15E+00    1.7     0.00001308     -8808.6771469145 -6.07E-03
     5 OT DIIS     0.15E+00    1.7     0.00000755     -8808.6802149301 -3.07E-03

  *** SCF run converged in     5 steps ***


  Electronic density on regular grids:      -4096.0000050933       -0.0000050933
  Core density on regular grids:             4095.9999999989       -0.0000000011
  Total charge density on r-space grids:       -0.0000050945
  Total charge density g-space grids:          -0.0000050945

  Overlap energy of the core charge distribution:               0.00000622090788
  Self energy of the core charge distribution:             -22442.43995950839599
  Core Hamiltonian energy:                                   6517.03117939821823
  Hartree energy:                                            9223.86272081620336
  Exchange-correlation energy:                              -2107.13416185704091

  Total energy:                                             -8808.68021493010747

 ENERGY| Total FORCE_EVAL ( QS ) energy [a.u.]:            -8808.681149077041482

 MD| ***************************************************************************
 MD| Step number                                                               7
 MD| Time [fs]                                                          3.500000
 MD| Conserved quantity [hartree]                            -0.880616596513E+04
 MD| ---------------------------------------------------------------------------
 MD|                                          Instantaneous             Averages
 MD| CPU time per MD step [s]                     17.836435            36.547238
 MD| Energy drift per atom [K]          -0.824811539616E+02  -0.709633351810E+02
 MD| Potential energy [hartree]         -0.880868114908E+04  -0.880870282605E+04
 MD| Kinetic energy [hartree]            0.251518394212E+01   0.253677089688E+01
 MD| Temperature [K]                             344.943029           347.903556
 MD| ***************************************************************************

 Number of electrons:                                                       4096
 Number of occupied orbitals:                                               2048
 Number of molecular orbitals:                                              2048

 Number of orbital functions:                                              20480
 Number of independent orbital functions:                                  20480

 Extrapolation method: PS Nth order
 Extrapolation order:  3


 SCF WAVEFUNCTION OPTIMIZATION

  ----------------------------------- OT ---------------------------------------
  Minimizer      : DIIS                : direct inversion
                                         in the iterative subspace
                                         using   7 DIIS vectors
                                         safer DIIS on
  Preconditioner : FULL_KINETIC        : inversion of T + eS
  Precond_solver : DEFAULT
  stepsize       :    0.15000000                  energy_gap     :    0.20000000
  eps_taylor     :   0.10000E-15                  max_taylor     :             4
  ----------------------------------- OT ---------------------------------------

  Step     Update method      Time    Convergence         Total energy    Change
  ------------------------------------------------------------------------------
     1 OT DIIS     0.15E+00    7.9     0.00004641     -8808.4083301940 -8.81E+03
     2 OT DIIS     0.15E+00    1.7     0.00003772     -8808.4205059646 -1.22E-02
     3 OT DIIS     0.15E+00    1.7     0.00002095     -8808.4409398911 -2.04E-02
     4 OT DIIS     0.15E+00    1.7     0.00001360     -8808.4479498335 -7.01E-03
     5 OT DIIS     0.15E+00    1.7     0.00001073     -8808.4504244710 -2.47E-03
     6 OT DIIS     0.15E+00    1.7     0.00000737     -8808.4530070812 -2.58E-03

  *** SCF run converged in     6 steps ***


  Electronic density on regular grids:      -4096.0000038474       -0.0000038474
  Core density on regular grids:             4096.0000000008        0.0000000008
  Total charge density on r-space grids:       -0.0000038465
  Total charge density g-space grids:          -0.0000038465

  Overlap energy of the core charge distribution:               0.00000436186814
  Self energy of the core charge distribution:             -22442.43995950839599
  Core Hamiltonian energy:                                   6506.06509803716654
  Hartree energy:                                            9232.01158161139574
  Exchange-correlation energy:                              -2104.08973158321533

  Total energy:                                             -8808.45300708118157

 ENERGY| Total FORCE_EVAL ( QS ) energy [a.u.]:            -8808.454572485698009

 MD| ***************************************************************************
 MD| Step number                                                               8
 MD| Time [fs]                                                          4.000000
 MD| Conserved quantity [hartree]                            -0.880616115781E+04
 MD| ---------------------------------------------------------------------------
 MD|                                          Instantaneous             Averages
 MD| CPU time per MD step [s]                     19.582603            34.426659
 MD| Energy drift per atom [K]          -0.814928519832E+02  -0.722795247813E+02
 MD| Potential energy [hartree]         -0.880845457249E+04  -0.880867179435E+04
 MD| Kinetic energy [hartree]            0.229341467729E+01   0.250635136943E+01
 MD| Temperature [K]                             314.528648           343.731692
 MD| ***************************************************************************

 Number of electrons:                                                       4096
 Number of occupied orbitals:                                               2048
 Number of molecular orbitals:                                              2048

 Number of orbital functions:                                              20480
 Number of independent orbital functions:                                  20480

 Extrapolation method: PS Nth order
 Extrapolation order:  3


 SCF WAVEFUNCTION OPTIMIZATION

  ----------------------------------- OT ---------------------------------------
  Minimizer      : DIIS                : direct inversion
                                         in the iterative subspace
                                         using   7 DIIS vectors
                                         safer DIIS on
  Preconditioner : FULL_KINETIC        : inversion of T + eS
  Precond_solver : DEFAULT
  stepsize       :    0.15000000                  energy_gap     :    0.20000000
  eps_taylor     :   0.10000E-15                  max_taylor     :             4
  ----------------------------------- OT ---------------------------------------

  Step     Update method      Time    Convergence         Total energy    Change
  ------------------------------------------------------------------------------
     1 OT DIIS     0.15E+00    7.9     0.00004051     -8808.2146824282 -8.81E+03
     2 OT DIIS     0.15E+00    1.7     0.00003408     -8808.2241471458 -9.46E-03
     3 OT DIIS     0.15E+00    1.7     0.00001718     -8808.2450200816 -2.09E-02
     4 OT DIIS     0.15E+00    1.7     0.00001245     -8808.2495182158 -4.50E-03
     5 OT DIIS     0.15E+00    1.7     0.00000891     -8808.2522175624 -2.70E-03

  *** SCF run converged in     5 steps ***


  Electronic density on regular grids:      -4096.0000022244       -0.0000022244
  Core density on regular grids:             4096.0000000016        0.0000000016
  Total charge density on r-space grids:       -0.0000022228
  Total charge density g-space grids:          -0.0000022228

  Overlap energy of the core charge distribution:               0.00000353692509
  Self energy of the core charge distribution:             -22442.43995950839599
  Core Hamiltonian energy:                                   6498.75949167072486
  Hartree energy:                                            9237.49743065240909
  Exchange-correlation energy:                              -2102.06918391410181

  Total energy:                                             -8808.25221756243809

 ENERGY| Total FORCE_EVAL ( QS ) energy [a.u.]:            -8808.253875783871990

 MD| ***************************************************************************
 MD| Step number                                                               9
 MD| Time [fs]                                                          4.500000
 MD| Conserved quantity [hartree]                            -0.880615636303E+04
 MD| ---------------------------------------------------------------------------
 MD|                                          Instantaneous             Averages
 MD| CPU time per MD step [s]                     18.101009            32.612698
 MD| Energy drift per atom [K]          -0.805071304589E+02  -0.731937031899E+02
 MD| Potential energy [hartree]         -0.880825387578E+04  -0.880862535895E+04
 MD| Kinetic energy [hartree]            0.209751275007E+01   0.246092485617E+01
 MD| Temperature [K]                             287.661824           337.501707
 MD| ***************************************************************************

 Number of electrons:                                                       4096
 Number of occupied orbitals:                                               2048
 Number of molecular orbitals:                                              2048

 Number of orbital functions:                                              20480
 Number of independent orbital functions:                                  20480

 Extrapolation method: PS Nth order
 Extrapolation order:  3


 SCF WAVEFUNCTION OPTIMIZATION

  ----------------------------------- OT ---------------------------------------
  Minimizer      : DIIS                : direct inversion
                                         in the iterative subspace
                                         using   7 DIIS vectors
                                         safer DIIS on
  Preconditioner : FULL_KINETIC        : inversion of T + eS
  Precond_solver : DEFAULT
  stepsize       :    0.15000000                  energy_gap     :    0.20000000
  eps_taylor     :   0.10000E-15                  max_taylor     :             4
  ----------------------------------- OT ---------------------------------------

  Step     Update method      Time    Convergence         Total energy    Change
  ------------------------------------------------------------------------------
     1 OT DIIS     0.15E+00    7.9     0.00004013     -8808.1037175083 -8.81E+03
     2 OT DIIS     0.15E+00    1.7     0.00003342     -8808.1129191202 -9.20E-03
     3 OT DIIS     0.15E+00    1.7     0.00002049     -8808.1296928499 -1.68E-02
     4 OT DIIS     0.15E+00    1.7     0.00001263     -8808.1379713264 -8.28E-03
     5 OT DIIS     0.15E+00    1.7     0.00001017     -8808.1402140622 -2.24E-03
     6 OT DIIS     0.15E+00    1.7     0.00000715     -8808.1425492297 -2.34E-03

  *** SCF run converged in     6 steps ***


  Electronic density on regular grids:      -4096.0000006755       -0.0000006755
  Core density on regular grids:             4096.0000000008        0.0000000008
  Total charge density on r-space grids:       -0.0000006747
  Total charge density g-space grids:          -0.0000006747

  Overlap energy of the core charge distribution:               0.00000340788366
  Self energy of the core charge distribution:             -22442.43995950839599
  Core Hamiltonian energy:                                   6495.52251403519585
  Hartree energy:                                            9239.94932053990124
  Exchange-correlation energy:                              -2101.17442770431853

  Total energy:                                             -8808.14254922973305

 ENERGY| Total FORCE_EVAL ( QS ) energy [a.u.]:            -8808.143950443989525

 MD| ***************************************************************************
 MD| Step number                                                              10
 MD| Time [fs]                                                          5.000000
 MD| Conserved quantity [hartree]                            -0.880615521494E+04
 MD| ---------------------------------------------------------------------------
 MD|                                          Instantaneous             Averages
 MD| CPU time per MD step [s]                     19.610905            31.312518
 MD| Energy drift per atom [K]          -0.802711017243E+02  -0.739014430434E+02
 MD| Potential energy [hartree]         -0.880814395044E+04  -0.880857721810E+04
 MD| Kinetic energy [hartree]            0.198873550785E+01   0.241370592134E+01
 MD| Temperature [K]                             272.743650           331.025901
 MD| ***************************************************************************

 -------------------------------------------------------------------------------
 -                                                                             -
 -                                DBCSR STATISTICS                             -
 -                                                                             -
 -------------------------------------------------------------------------------
 COUNTER                                    TOTAL       BLAS       SMM       ACC
 flops     9 x    32 x    32          13287555072     100.0%      0.0%      0.0%
 flops    22 x    32 x    32          16240345088     100.0%      0.0%      0.0%
 flops    64 x   256 x   256        1356135923712     100.0%      0.0%      0.0%
 flops   307 x   256 x   256        2874037764096     100.0%      0.0%      0.0%
 flops   338 x   256 x   256        3164250046464     100.0%      0.0%      0.0%
 flops   364 x   256 x   256        3407653896192     100.0%      0.0%      0.0%
 flops   320 x   256 x   256        4493609533440     100.0%      0.0%      0.0%
 flops   351 x   256 x   256        4928927956992     100.0%      0.0%      0.0%
 flops     9 x     9 x   256        5648350040064     100.0%      0.0%      0.0%
 flops   307 x   256 x  2560        6541268746240     100.0%      0.0%      0.0%
 flops   338 x   256 x  2560        7201787740160     100.0%      0.0%      0.0%
 flops    64 x   256 x  2560        7296075694080     100.0%      0.0%      0.0%
 flops   364 x   256 x  2560        7755771412480     100.0%      0.0%      0.0%
 flops     9 x    22 x   256        7855827369984     100.0%      0.0%      0.0%
 flops    22 x     9 x   256        7866447519744     100.0%      0.0%      0.0%
 flops   320 x   256 x  2560       10227390873600     100.0%      0.0%      0.0%
 flops    22 x    22 x   256       11004752822272     100.0%      0.0%      0.0%
 flops   342 x   256 x   256       11205938774016     100.0%      0.0%      0.0%
 flops   351 x   256 x  2560       11218169364480     100.0%      0.0%      0.0%
 flops    32 x   256 x   256       13109313929216     100.0%      0.0%      0.0%
 flops   329 x   256 x   256       15399974338560     100.0%      0.0%      0.0%
 flops     9 x    32 x     9       23722505551872     100.0%      0.0%      0.0%
 flops   342 x   256 x  2560       25504555991040     100.0%      0.0%      0.0%
 flops    22 x    32 x     9       33153656684544     100.0%      0.0%      0.0%
 flops     9 x    32 x    22       33153656684544     100.0%      0.0%      0.0%
 flops   329 x   256 x  2560       35050120806400     100.0%      0.0%      0.0%
 flops    22 x    32 x    22       46115724689408     100.0%      0.0%      0.0%
 flops    32 x   256 x  2560       70528731709440     100.0%      0.0%      0.0%
 flops inhomo. stacks             206063336947712     100.0%      0.0%      0.0%
 flops total                       615.877501E+12     100.0%      0.0%      0.0%
 flops max/rank                     19.365725E+12     100.0%      0.0%      0.0%
 matmuls inhomo. stacks                   1534400     100.0%      0.0%      0.0%
 matmuls total                        11642078528     100.0%      0.0%      0.0%
 number of processed stacks              24163488     100.0%      0.0%      0.0%
 average stack size                                   481.8       0.0       0.0
 marketing flops                     1.147134E+15
 -------------------------------------------------------------------------------
 # multiplications                           2431
 max memory usage/rank               2.091127E+09
 # max total images/rank                        2
 # max 3D layers                                1
 # MPI messages exchanged                 1011296
 MPI messages size (bytes):
  total size                         8.923375E+12
  min size                           0.000000E+00
  max size                         104.857600E+06
  average size                       8.823703E+06
 MPI breakdown and total messages size (bytes):
             size <=      128                6424                        0
       128 < size <=     8192                   0                        0
      8192 < size <=    32768                   0                        0
     32768 < size <=   131072                 264                 17301504
    131072 < size <=  4194304              457408             338698436608
   4194304 < size <= 16777216              453568            3740312535040
  16777216 < size                           93632            4844353858848
 -------------------------------------------------------------------------------

 *** WARNING in dbcsr_mm.F:294 :: Using a non-square number of MPI ranks ***
 *** might lead to poor performance. Used ranks: 32 Suggested: 36 64     ***

 -------------------------------------------------------------------------------
 -                                                                             -
 -                      DBCSR MESSAGE PASSING PERFORMANCE                      -
 -                                                                             -
 -------------------------------------------------------------------------------
 ROUTINE             CALLS      AVE VOLUME [Bytes]
 MP_Bcast               29                     12.
 MP_Allreduce        12987                     67.
 MP_Alltoall          9270                1408212.
 MP_ISend            75540                3922646.
 MP_IRecv            75540                3922438.
 -------------------------------------------------------------------------------

 -------------------------------------------------------------------------------
 -                                                                             -
 -                                GRID STATISTICS                              -
 -                                                                             -
 -------------------------------------------------------------------------------
 LP    KERNEL             BACKEND                              COUNT     PERCENT
 1     collocate ortho    REF                              135745315      21.32%
 1     integrate ortho    REF                              130493500      20.49%
 2     integrate ortho    REF                               88995620      13.97%
 2     collocate ortho    REF                               84560451      13.28%
 0     collocate ortho    REF                               75171698      11.80%
 0     integrate ortho    REF                               68664071      10.78%
 3     integrate ortho    REF                               26282166       4.13%
 3     collocate ortho    REF                               20755016       3.26%
 4     integrate ortho    REF                                3293394       0.52%
 4     collocate ortho    REF                                1638196       0.26%
 0     collocate general  REF                                 540672       0.08%
 1     integrate general  REF                                 540672       0.08%
 5     integrate ortho    REF                                 141925       0.02%
 -------------------------------------------------------------------------------

 MEMORY| Estimated peak process memory [MiB]                                1995

 -------------------------------------------------------------------------------
 -                                                                             -
 -                         MESSAGE PASSING PERFORMANCE                         -
 -                                                                             -
 -------------------------------------------------------------------------------

 ROUTINE             CALLS      AVE VOLUME [Bytes]
 MP_Group                4
 MP_Bcast             3951                  59894.
 MP_Allreduce        10814                   2004.
 MP_Sync                70
 MP_Alltoall          1700               18236585.
 MP_ISendRecv        15748                 120528.
 MP_Wait             29528
 MP_ISend            11660                 449343.
 MP_IRecv            11660                 449343.
 -------------------------------------------------------------------------------


 -------------------------------------------------------------------------------
 -                                                                             -
 -                           R E F E R E N C E S                               -
 -                                                                             -
 -------------------------------------------------------------------------------
 
 CP2K version 8.2, the CP2K developers group (2021).
 CP2K is freely available from https://www.cp2k.org/ .

 Kuehne,Thomas D.; Iannuzzi,Marcella; Del Ben,Mauro;
 Rybkin,Vladimir V.; Seewald,Patrick; Stein,Frederick; Laino,Teodoro;
 Khaliullin,Rustam Z.; Schuett,Ole; Schiffmann,Florian; Golze,Dorothea;
 Wilhelm,Jan; Chulkov,Sergey; Bani-Hashemian,Mohammad Hossein;
 Weber,Valery; Borstnik,Urban; Taillefumier,Mathieu;
 Jakobovits,Alice Shoshana; Lazzaro,Alfio; Pabst,Hans; Mueller,Tiziano;
 Schade,Robert; Guidon,Manuel; Andermatt,Samuel; Holmberg,Nico;
 Schenter,Gregory K.; Hehn,Anna; Bussy,Augustin; Belleflamme,Fabian;
 Tabacchi,Gloria; Gloess,Andreas; Lass,Michael; Bethune,Iain;
 Mundy,Christopher J.; Plessl,Christian; Watkins,Matt;
 VandeVondele,Joost; Krack,Matthias; Hutter,Juerg. 
 The Journal of Chemical Physics, 152 (19), (2020). 
 CP2K: An electronic structure and molecular dynamics software package -
 Quickstep: Efficient and accurate electronic structure calculations.
 https://doi.org/10.1063/5.0007045

 Schuett, Ole; Messmer, Peter; Hutter, Juerg; VandeVondele, Joost. 
 Electronic Structure Calculations on Graphics Processing Units, John
 Wiley & Sons, Ltd, 173-190 (2016). 
 GPU-Accelerated Sparse Matrix-Matrix Multiplication for
 Linear Scaling Density Functional Theory.
 https://doi.org/10.1002/9781118670712.ch8

 Borstnik, U; VandeVondele, J; Weber, V; Hutter, J. 
 PARALLEL COMPUTING, 40 (5-6), 47-58 (2014). 
 Sparse matrix multiplication: The distributed block-compressed sparse
 row library.
 https://doi.org/10.1016/j.parco.2014.03.012

 Hutter, J; Iannuzzi, M; Schiffmann, F; VandeVondele, J. 
 WIREs Comput Mol Sci., 4 (1), 15-25 (2014). 
 CP2K: atomistic simulations of condensed matter systems.
 https://doi.org/10.1002/wcms.1159

 Marek, A; Blum, V; Johanni, R; Havu, V; Lang, B; Auckenthaler, T;
 Heinecke, A; Bungartz, H; Lederer, H. 
 Journal of Physics: Condensed Matter, 26 (21), (2014). 
 The ELPA library: scalable parallel eigenvalue solutions for
 electronic structure
 theory and computational science.
 https://doi.org/10.1088/0953-8984/26/21/213201

 Krack, M. 
 THEORETICAL CHEMISTRY ACCOUNTS, 114 (1-3), 145-152 (2005). 
 Pseudopotentials for H to Kr optimized for gradient-corrected
 exchange-correlation functionals.
 https://doi.org/10.1007/s00214-005-0655-y

 VandeVondele, J; Krack, M; Mohamed, F; Parrinello, M; Chassaing, T;
 Hutter, J. COMPUTER PHYSICS COMMUNICATIONS, 167 (2), 103-128 (2005). 
 QUICKSTEP: Fast and accurate density functional calculations using a
 mixed Gaussian and plane waves approach.
 https://doi.org/10.1016/j.cpc.2004.12.014

 Frigo, M; Johnson, SG. 
 PROCEEDINGS OF THE IEEE, 93 (2), 216-231 (2005). 
 The design and implementation of FFTW3.
 https://doi.org/10.1109/JPROC.2004.840301

 VandeVondele, J; Hutter, J. 
 JOURNAL OF CHEMICAL PHYSICS, 118 (10), 4365-4369 (2003). 
 An efficient orbital transformation method for electronic structure
 calculations.
 https://doi.org/10.1063/1.1543154

 Hartwigsen, C; Goedecker, S; Hutter, J. 
 PHYSICAL REVIEW B, 58 (7), 3641-3662 (1998). 
 Relativistic separable dual-space Gaussian pseudopotentials from H to Rn.
 https://doi.org/10.1103/PhysRevB.58.3641

 Lippert, G; Hutter, J; Parrinello, M. 
 MOLECULAR PHYSICS, 92 (3), 477-487 (1997). 
 A hybrid Gaussian and plane wave density functional scheme.
 https://doi.org/10.1080/002689797170220

 Goedecker, S; Teter, M; Hutter, J. 
 PHYSICAL REVIEW B, 54 (3), 1703-1710 (1996). 
 Separable dual-space Gaussian pseudopotentials.
 https://doi.org/10.1103/PhysRevB.54.1703


 -------------------------------------------------------------------------------
 -                                                                             -
 -                                T I M I N G                                  -
 -                                                                             -
 -------------------------------------------------------------------------------
 SUBROUTINE                       CALLS  ASD         SELF TIME        TOTAL TIME
                                MAXIMUM       AVERAGE  MAXIMUM  AVERAGE  MAXIMUM
 CP2K                                 1  1.0    0.013    0.015  313.340  313.341
 qs_mol_dyn_low                       1  2.0    0.003    0.003  313.138  313.162
 qs_forces                           11  3.9    0.003    0.004  312.932  312.933
 qs_energies                         11  4.9    0.001    0.001  307.677  307.697
 scf_env_do_scf                      11  5.9    0.001    0.001  281.635  281.672
 scf_env_do_scf_inner_loop          116  6.6    0.003    0.010  211.242  211.243
 velocity_verlet                     10  3.0    0.001    0.001  206.983  206.989
 dbcsr_multiply_generic            2431 12.5    0.239    0.245  164.645  167.060
 qs_scf_new_mos                     116  7.6    0.001    0.001  164.895  166.123
 qs_scf_loop_do_ot                  116  8.6    0.001    0.001  164.894  166.122
 ot_scf_mini                        116  9.6    0.004    0.004  155.912  156.946
 multiply_cannon                   2431 13.5    0.318    0.346  118.295  124.823
 multiply_cannon_loop              2431 14.5    0.331    0.358  113.518  120.004
 ot_mini                            116 10.6    0.001    0.001   99.349  100.622
 multiply_cannon_multrec          19448 15.5   82.942   91.848   82.991   91.908
 init_scf_loop                       11  6.9    0.000    0.000   70.124   70.130
 prepare_preconditioner              11  7.9    0.000    0.000   65.151   65.260
 make_preconditioner                 11  8.9    0.000    0.000   65.151   65.260
 make_full_inverse_cholesky          11  9.9    0.000    0.000   63.045   63.228
 qs_ot_get_derivative               116 11.6    0.002    0.002   52.931   53.901
 apply_preconditioner_dbcsr         127 12.6    0.000    0.000   44.032   46.285
 apply_single                       127 13.6    0.001    0.001   44.032   46.284
 ot_diis_step                       116 11.6    0.006    0.007   45.949   45.949
 mp_waitall_1                    173452 16.4   29.391   40.113   29.391   40.113
 cp_fm_cholesky_invert               11 10.9   35.454   35.469   35.454   35.469
 rebuild_ks_matrix                  127  8.3    0.001    0.001   32.344   33.668
 qs_ks_build_kohn_sham_matrix       127  9.3    0.018    0.019   32.343   33.667
 make_m2s                          4862 13.5    0.126    0.134   30.709   32.451
 qs_ks_update_qs_env                127  7.6    0.002    0.002   29.728   30.963
 qs_ot_get_p                        127 10.4    0.001    0.002   27.393   28.878
 multiply_cannon_metrocomm3       19448 15.5    0.059    0.063   15.753   25.153
 make_images                       4862 14.5    3.828    5.262   22.104   23.928
 multiply_cannon_metrocomm4       17017 15.5    0.070    0.078   13.386   23.835
 mp_irecv_dv                      48909 16.2   13.277   23.694   13.277   23.694
 cp_fm_cholesky_decompose            22 10.9   23.430   23.537   23.430   23.537
 qs_rho_update_rho                  127  7.7    0.001    0.001   20.776   20.981
 calculate_rho_elec                 127  8.7    0.341    0.351   20.775   20.980
 qs_ot_get_derivative_diag           62 12.2    0.003    0.003   19.072   19.749
 init_scf_run                        11  5.9    0.000    0.001   18.448   18.455
 scf_env_initial_rho_setup           11  6.9    0.000    0.001   18.448   18.455
 qs_ot_p2m_diag                      66 11.2    0.491    0.511   17.245   17.289
 wfi_extrapolate                     11  7.9    0.001    0.001   16.923   16.923
 make_images_data                  4862 15.5    0.069    0.075   13.113   15.990
 cp_dbcsr_syevd                      66 12.2    0.007    0.008   15.647   15.653
 cp_fm_diag_elpa                     66 13.2    0.001    0.001   15.349   15.354
 cp_fm_diag_elpa_base                66 14.2   15.138   15.155   15.316   15.320
 dbcsr_make_dense_low              8334 15.6    0.075    0.080   11.157   14.678
 make_dense_data                   8334 16.6   10.436   13.967   11.056   14.575
 hybrid_alltoall_any               5031 16.4    0.601    2.617   12.041   14.184
 qs_ot_get_derivative_taylor         54 13.0    0.002    0.002   13.114   13.559
 qs_ot_get_orbitals                 116 10.6    0.001    0.001   13.125   13.392
 mp_sum_l                         11831 13.4    8.447   13.292    8.447   13.292
 grid_collocate_task_list           127  9.7   12.604   12.807   12.604   12.807
 dbcsr_make_images_dense           4236 14.8    0.051    0.054    8.290   11.326
 sum_up_and_integrate               127 10.3    0.125    0.139   11.068   11.101
 integrate_v_rspace                 127 11.3    0.004    0.005   10.943   10.980
 calculate_dm_sparse                127  9.5    0.001    0.001    9.972   10.202
 cp_gemm                             81  9.0    0.000    0.000    9.431    9.534
 cp_gemm_fm_gemm                     81 10.0    0.000    0.000    9.430    9.533
 cp_fm_gemm                          81 11.0    9.430    9.533    9.430    9.533
 pw_transfer                       1535 11.6    0.087    0.096    7.574    7.918
 fft_wrap_pw1pw2                   1281 12.7    0.010    0.011    7.397    7.742
 dbcsr_dot_sd                      1303 12.0    2.447    2.495    5.912    7.689
 cp_dbcsr_sm_fm_multiply             37  9.5    0.002    0.002    7.243    7.292
 fft_wrap_pw1pw2_140                519 13.2    0.395    0.405    6.579    6.980
 fft3d_ps                          1281 14.7    3.329    3.951    6.384    6.729
 density_rs2pw                      127  9.7    0.005    0.006    6.221    6.556
 mp_sum_d                          4422 12.1    4.717    6.501    4.717    6.501
 -------------------------------------------------------------------------------

 The number of warnings for this run is : 2
 
 -------------------------------------------------------------------------------
  **** **** ******  **  PROGRAM ENDED AT                 2022-01-17 17:16:48.163
 ***** ** ***  *** **   PROGRAM RAN ON                                 nid004992
 **    ****   ******    PROGRAM RAN BY                                    hjudge
 ***** **    ** ** **   PROGRAM PROCESS ID                                190138
  **** **  *******  **  PROGRAM STOPPED IN /mnt/lustre/a2fs-work2/work/z19/z19/h
                                           judge/CUG/archer2/CPU/CP2K/H2O-512/4N
                                           ODES/128CPN/16THREADS
