 DBCSR| CPU Multiplication driver                                           BLAS
 DBCSR| Multrec recursion limit                                              512
 DBCSR| Multiplication stack size                                           1000
 DBCSR| Maximum elements for images                                    UNLIMITED
 DBCSR| Multiplicative factor virtual images                                   1
 DBCSR| Use multiplication densification                                       T
 DBCSR| Multiplication size stacks                                             3
 DBCSR| Use memory pool for CPU allocation                                     F
 DBCSR| Number of 3D layers                                               SINGLE
 DBCSR| Use MPI memory allocation                                              F
 DBCSR| Use RMA algorithm                                                      F
 DBCSR| Use Communication thread                                               T
 DBCSR| Communication thread load                                             87
 DBCSR| MPI: My node id                                                        0
 DBCSR| MPI: Number of nodes                                                 256
 DBCSR| OMP: Current number of threads                                         1
 DBCSR| OMP: Max number of threads                                             1
 DBCSR| Split modifier for TAS multiplication algorithm                  1.0E+00


  **** **** ******  **  PROGRAM STARTED AT               2022-01-17 15:31:41.648
 ***** ** ***  *** **   PROGRAM STARTED ON                             nid001652
 **    ****   ******    PROGRAM STARTED BY                                hjudge
 ***** **    ** ** **   PROGRAM PROCESS ID                                186330
  **** **  *******  **  PROGRAM STARTED IN /mnt/lustre/a2fs-work2/work/z19/z19/h
                                           judge/CUG/archer2/CPU/CP2K/H2O-512/2N
                                           ODES/128CPN/1THREADS

 CP2K| version string:                                          CP2K version 8.2
 CP2K| source code revision number:                                  git:310b7ab
 CP2K| cp2kflags: omp libint fftw3 libxc elpa parallel mpi3 scalapack plumed2   
 CP2K| is freely available from                            https://www.cp2k.org/
 CP2K| Program compiled at                          Thu Dec  2 10:30:45 GMT 2021
 CP2K| Program compiled on                                                  ln02
 CP2K| Program compiled for                                              ARCHER2
 CP2K| Data directory path         /work/y07/shared/apps/core/cp2k/cp2k-8.2/data
 CP2K| Input file name                                               H2O-512.inp

 GLOBAL| Force Environment number                                              1
 GLOBAL| Basis set file name                                      GTH_BASIS_SETS
 GLOBAL| Potential file name                                           POTENTIAL
 GLOBAL| MM Potential file name                                     MM_POTENTIAL
 GLOBAL| Coordinate file name                                      __STD_INPUT__
 GLOBAL| Method name                                                        CP2K
 GLOBAL| Project name                                                    H2O-512
 GLOBAL| Run type                                                             MD
 GLOBAL| FFT library                                                       FFTW3
 GLOBAL| Diagonalization library                                            ELPA
 GLOBAL| Minimum number of eigenvectors for ELPA usage                        16
 GLOBAL| Orthonormality check for eigenvectors                          DISABLED
 GLOBAL| Matrix multiplication library                                    SCALAP
 GLOBAL| All-to-all communication in single precision                          F
 GLOBAL| FFTs using library dependent lengths                                  F
 GLOBAL| Grid backend                                                       AUTO
 GLOBAL| Global print level                                                  LOW
 GLOBAL| MPI I/O enabled                                                       T
 GLOBAL| Total number of message passing processes                           256
 GLOBAL| Number of threads for this process                                    1
 GLOBAL| This output is from process                                           0
 GLOBAL| CPU model name                          AMD EPYC 7742 64-Core Processor
 GLOBAL| CPUID                                                              1002

 MEMORY| system memory details [Kb]
 MEMORY|                        rank 0           min           max       average
 MEMORY| MemTotal            263528084     263528084     263528088     263528086
 MEMORY| MemFree             237276072     237276072     239703004     238489543
 MEMORY| Buffers                 30240         23836         30240         27038
 MEMORY| Cached                1514804        647684       1514804       1081243
 MEMORY| Slab                  1676008       1452384       1676008       1564195
 MEMORY| SReclaimable           100492         94564        100492         97527
 MEMORY| MemLikelyFree       238921608     238921608     240469088     239695353


 GENERATE|  Preliminary Number of Bonds generated:                             0
 GENERATE|  Achieved consistency in connectivity generation.

 *******************************************************************************
 *******************************************************************************
 **                                                                           **
 **     #####                         ##              ##                      **
 **    ##   ##            ##          ##              ##                      **
 **   ##     ##                       ##            ######                    **
 **   ##     ##  ##   ##  ##   #####  ##  ##   ####   ##    #####    #####    **
 **   ##     ##  ##   ##  ##  ##      ## ##   ##      ##   ##   ##  ##   ##   **
 **   ##  ## ##  ##   ##  ##  ##      ####     ###    ##   ######   ######    **
 **    ##  ###   ##   ##  ##  ##      ## ##      ##   ##   ##       ##        **
 **     #######   #####   ##   #####  ##  ##  ####    ##    #####   ##        **
 **           ##                                                    ##        **
 **                                                                           **
 **                                                ... make the atoms dance   **
 **                                                                           **
 **            Copyright (C) by CP2K developers group (2000-2021)             **
 **                      J. Chem. Phys. 152, 194103 (2020)                    **
 **                                                                           **
 *******************************************************************************


 TOTAL NUMBERS AND MAXIMUM NUMBERS

  Total number of            - Atomic kinds:                                   2
                             - Atoms:                                       1536
                             - Shell sets:                                  3072
                             - Shells:                                      9216
                             - Primitive Cartesian functions:              10752
                             - Cartesian basis functions:                  21504
                             - Spherical basis functions:                  20480

  Maximum angular momentum of- Orbital basis functions:                        2
                             - Local part of the GTH pseudopotential:          2
                             - Non-local part of the GTH pseudopotential:      0


 SCF PARAMETERS         Density guess:                                    ATOMIC
                        --------------------------------------------------------
                        max_scf:                                              50
                        max_scf_history:                                       0
                        max_diis:                                              4
                        --------------------------------------------------------
                        eps_scf:                                        1.00E-05
                        eps_scf_history:                                0.00E+00
                        eps_diis:                                       1.00E-01
                        eps_eigval:                                     1.00E-05
                        --------------------------------------------------------
                        level_shift [a.u.]:                                 0.00
                        --------------------------------------------------------
                        No outer SCF

 MD_PAR| Molecular dynamics protocol (MD input parameters)
 MD_PAR| Ensemble type                                                       NVE
 MD_PAR| Number of time steps                                                 10
 MD_PAR| Time step [fs]                                                 0.500000
 MD_PAR| Temperature [K]                                              300.000000
 MD_PAR| Temperature tolerance [K]                                      0.000000
 MD_PAR| Print MD information every                                    1 step(s)
 MD_PAR| File type   Print frequency [steps]                          File names
 MD_PAR| Coordinates          1                                H2O-512-pos-1.xyz
 MD_PAR| Velocities           1                                H2O-512-vel-1.xyz
 MD_PAR| Energies             1                                   H2O-512-1.ener
 MD_PAR| Dump                20                                H2O-512-1.restart

 ROT| Rotational analysis information
 ROT| Principal axes and moments of inertia [a.u.]
 ROT|                           1                   2                   3
 ROT| Eigenvalues      6.12011925703E+09   6.17734003456E+09   6.32378668800E+09
 ROT|      x              0.229702356692      0.883899672739      0.407379670409
 ROT|      y              0.711719446246      0.132949289019     -0.689768016354
 ROT|      z              0.663846561462     -0.448381372362      0.598549820611
 ROT| Number of rotovibrational vectors                                        6

 DOF| Calculation of degrees of freedom
 DOF| Number of atoms                                                       1536
 DOF| Number of intramolecular constraints                                     0
 DOF| Number of intermolecular constraints                                     0
 DOF| Invariants (translations + rotations)                                    3
 DOF| Degrees of freedom                                                    4605

 DOF| Restraints information
 DOF| Number of intramolecular restraints                                      0
 DOF| Number of intermolecular restraints                                      0

 MD_VEL| Velocities initialization
 MD_VEL| Initial temperature [K]                                      300.000000
 MD_VEL| COM velocity             0.0000000000    -0.0000000000     0.0000000000

 Number of electrons:                                                       4096
 Number of occupied orbitals:                                               2048
 Number of molecular orbitals:                                              2048

 Number of orbital functions:                                              20480
 Number of independent orbital functions:                                  20480

 Extrapolation method: initial_guess


 SCF WAVEFUNCTION OPTIMIZATION

  ----------------------------------- OT ---------------------------------------
  Minimizer      : DIIS                : direct inversion
                                         in the iterative subspace
                                         using   7 DIIS vectors
                                         safer DIIS on
  Preconditioner : FULL_KINETIC        : inversion of T + eS
  Precond_solver : DEFAULT
  stepsize       :    0.15000000                  energy_gap     :    0.20000000
  eps_taylor     :   0.10000E-15                  max_taylor     :             4
  ----------------------------------- OT ---------------------------------------

  Step     Update method      Time    Convergence         Total energy    Change
  ------------------------------------------------------------------------------
     1 OT DIIS     0.15E+00    8.0     0.00467324     -8480.4728425690 -8.48E+03
     2 OT DIIS     0.15E+00    2.7     0.00318266     -8587.4488310143 -1.07E+02
     3 OT DIIS     0.15E+00    2.7     0.00347210     -8644.7931966768 -5.73E+01
     4 OT DIIS     0.15E+00    2.7     0.00204380     -8678.2157923835 -3.34E+01
     5 OT DIIS     0.15E+00    2.7     0.00148292     -8717.4624183879 -3.92E+01
     6 OT DIIS     0.15E+00    2.7     0.00119954     -8738.7795043572 -2.13E+01
     7 OT DIIS     0.15E+00    2.7     0.00099038     -8755.0185947301 -1.62E+01
     8 OT DIIS     0.15E+00    2.7     0.00079894     -8767.5347825454 -1.25E+01
     9 OT DIIS     0.15E+00    2.7     0.00061581     -8780.1862563834 -1.27E+01
    10 OT DIIS     0.15E+00    2.7     0.00048147     -8788.6147471043 -8.43E+00
    11 OT DIIS     0.15E+00    2.7     0.00038278     -8794.1215228889 -5.51E+00
    12 OT DIIS     0.15E+00    2.7     0.00031960     -8797.5363589594 -3.41E+00
    13 OT DIIS     0.15E+00    2.7     0.00026435     -8799.9344030908 -2.40E+00
    14 OT DIIS     0.15E+00    2.7     0.00023004     -8801.7089305035 -1.77E+00
    15 OT DIIS     0.15E+00    2.7     0.00019592     -8803.0697888564 -1.36E+00
    16 OT DIIS     0.15E+00    2.7     0.00016642     -8804.2000843411 -1.13E+00
    17 OT DIIS     0.15E+00    2.7     0.00014164     -8805.0506655806 -8.51E-01
    18 OT DIIS     0.15E+00    2.7     0.00012638     -8805.6725421207 -6.22E-01
    19 OT DIIS     0.15E+00    2.7     0.00010717     -8806.2171485645 -5.45E-01
    20 OT DIIS     0.15E+00    2.7     0.00009868     -8806.5290018963 -3.12E-01
    21 OT DIIS     0.15E+00    2.7     0.00008484     -8806.8772741195 -3.48E-01
    22 OT DIIS     0.15E+00    2.7     0.00007717     -8807.0943334427 -2.17E-01
    23 OT DIIS     0.15E+00    2.7     0.00006815     -8807.2974129499 -2.03E-01
    24 OT DIIS     0.15E+00    2.7     0.00006019     -8807.4529078233 -1.55E-01
    25 OT DIIS     0.15E+00    2.7     0.00005010     -8807.5989834234 -1.46E-01
    26 OT DIIS     0.15E+00    2.7     0.00004000     -8807.6989662228 -1.00E-01
    27 OT DIIS     0.15E+00    2.7     0.00003462     -8807.7827122401 -8.37E-02
    28 OT DIIS     0.15E+00    2.7     0.00003071     -8807.7824932500  2.19E-04
    29 OT DIIS     0.15E+00    2.7     0.00002690     -8807.8200993195 -3.76E-02
    30 OT DIIS     0.15E+00    2.7     0.00002500     -8807.8399634016 -1.99E-02
    31 OT DIIS     0.15E+00    2.7     0.00002395     -8807.8566460922 -1.67E-02
    32 OT DIIS     0.15E+00    2.7     0.00002328     -8807.8682689642 -1.16E-02
    33 OT DIIS     0.15E+00    2.7     0.00002304     -8807.8827275965 -1.45E-02
    34 OT DIIS     0.15E+00    2.7     0.00002300     -8807.8854890296 -2.76E-03
    35 OT SD       0.15E+00    2.7     0.00002301     -8807.8907467596 -5.26E-03
    36 OT SD       0.15E+00    2.7     0.00002308     -8807.8940817096 -3.33E-03
    37 OT SD       0.15E+00    2.7     0.00002318     -8807.8974407043 -3.36E-03
    38 OT SD       0.15E+00    2.7     0.00002329     -8807.9008284718 -3.39E-03
    39 OT SD       0.15E+00    2.7     0.00002341     -8807.9042491083 -3.42E-03
    40 OT SD       0.15E+00    2.7     0.00002354     -8807.9077063658 -3.46E-03
    41 OT SD       0.15E+00    2.7     0.00002369     -8807.9112037365 -3.50E-03
    42 OT SD       0.15E+00    2.7     0.00002384     -8807.9147444866 -3.54E-03
    43 OT SD       0.15E+00    2.7     0.00002400     -8807.9183316715 -3.59E-03
    44 OT SD       0.15E+00    2.7     0.00002417     -8807.9219681410 -3.64E-03
    45 OT DIIS     0.15E+00    2.7     0.00002435     -8807.9256565390 -3.69E-03
    46 OT DIIS     0.15E+00    2.7     0.00004962     -8807.9133505409  1.23E-02
    47 OT SD       0.15E+00    2.7     0.00005087     -8807.9141788218 -8.28E-04
    48 OT SD       0.15E+00    2.7     0.00004013     -8807.9284297314 -1.43E-02
    49 OT SD       0.15E+00    2.7     0.00003558     -8807.9379034255 -9.47E-03
    50 OT SD       0.15E+00    2.7     0.00003335     -8807.9455774360 -7.67E-03

  Leaving inner SCF loop after reaching    50 steps.


  Electronic density on regular grids:      -4096.0000074671       -0.0000074671
  Core density on regular grids:             4095.9999999927       -0.0000000073
  Total charge density on r-space grids:       -0.0000074744
  Total charge density g-space grids:          -0.0000074744

  Overlap energy of the core charge distribution:               0.00004500798551
  Self energy of the core charge distribution:             -22442.43995950839599
  Core Hamiltonian energy:                                   6603.78876373995809
  Hartree energy:                                            9161.23650253894084
  Exchange-correlation energy:                              -2130.53092921452753

  Total energy:                                             -8807.94557743603946

 *** WARNING in qs_scf.F:576 :: SCF run NOT converged ***


 ENERGY| Total FORCE_EVAL ( QS ) energy [a.u.]:            -8807.952436846249839

 MD_INI| MD initialization
 MD_INI| Potential energy [hartree]                          -0.880795243685E+04
 MD_INI| Kinetic energy [hartree]                             0.218747769838E+01
 MD_INI| Temperature [K]                                              300.000000
 MD_INI| Cell volume [bohr^3]                                 1.037187315243E+05
 MD_INI| Cell volume [ang^3]                                  1.536953010365E+04
 MD_INI| Cell lengths [bohr]      4.69842608E+01  4.69842608E+01  4.69842608E+01
 MD_INI| Cell lengths [ang]       2.48630000E+01  2.48630000E+01  2.48630000E+01
 MD_INI| Cell angles [deg]        9.00000000E+01  9.00000000E+01  9.00000000E+01

 Number of electrons:                                                       4096
 Number of occupied orbitals:                                               2048
 Number of molecular orbitals:                                              2048

 Number of orbital functions:                                              20480
 Number of independent orbital functions:                                  20480

 Extrapolation method: PS Nth order
 Extrapolation order:  0


 SCF WAVEFUNCTION OPTIMIZATION

  ----------------------------------- OT ---------------------------------------
  Minimizer      : DIIS                : direct inversion
                                         in the iterative subspace
                                         using   7 DIIS vectors
                                         safer DIIS on
  Preconditioner : FULL_KINETIC        : inversion of T + eS
  Precond_solver : DEFAULT
  stepsize       :    0.15000000                  energy_gap     :    0.20000000
  eps_taylor     :   0.10000E-15                  max_taylor     :             4
  ----------------------------------- OT ---------------------------------------

  Step     Update method      Time    Convergence         Total energy    Change
  ------------------------------------------------------------------------------
     1 OT DIIS     0.15E+00    7.6     0.00010167     -8807.9544864971 -8.81E+03
     2 OT DIIS     0.15E+00    2.3     0.00007399     -8808.0092369592 -5.48E-02
     3 OT DIIS     0.15E+00    2.3     0.00005493     -8808.0646218068 -5.54E-02
     4 OT DIIS     0.15E+00    2.3     0.00004933     -8808.1020295983 -3.74E-02
     5 OT DIIS     0.15E+00    2.7     0.00004590     -8808.1449417661 -4.29E-02
     6 OT DIIS     0.15E+00    2.7     0.00004349     -8808.1870937330 -4.22E-02
     7 OT DIIS     0.15E+00    2.7     0.00003912     -8808.2473874149 -6.03E-02
     8 OT DIIS     0.15E+00    2.7     0.00002832     -8808.3272738033 -7.99E-02
     9 OT DIIS     0.15E+00    2.7     0.00002028     -8808.3586106073 -3.13E-02
    10 OT DIIS     0.15E+00    2.7     0.00001288     -8808.3785229058 -1.99E-02
    11 OT DIIS     0.15E+00    2.7     0.00001027     -8808.3792532978 -7.30E-04
    12 OT DIIS     0.15E+00    2.7     0.00000705     -8808.3828040847 -3.55E-03

  *** SCF run converged in    12 steps ***


  Electronic density on regular grids:      -4096.0000079114       -0.0000079114
  Core density on regular grids:             4095.9999999916       -0.0000000084
  Total charge density on r-space grids:       -0.0000079198
  Total charge density g-space grids:          -0.0000079198

  Overlap energy of the core charge distribution:               0.00004378130995
  Self energy of the core charge distribution:             -22442.43995950839599
  Core Hamiltonian energy:                                   6601.18505410876787
  Hartree energy:                                            9162.94016983386973
  Exchange-correlation energy:                              -2130.06811230022140

  Total energy:                                             -8808.38280408466926

 ENERGY| Total FORCE_EVAL ( QS ) energy [a.u.]:            -8808.383479838952553

 MD| ***************************************************************************
 MD| Step number                                                               1
 MD| Time [fs]                                                          0.500000
 MD| Conserved quantity [hartree]                            -0.880615756958E+04
 MD| ---------------------------------------------------------------------------
 MD|                                          Instantaneous             Averages
 MD| CPU time per MD step [s]                    190.207021           190.207021
 MD| Energy drift per atom [K]          -0.807138154090E+02   0.000000000000E+00
 MD| Potential energy [hartree]         -0.880838347984E+04  -0.880838347984E+04
 MD| Kinetic energy [hartree]            0.222591026053E+01   0.222591026053E+01
 MD| Temperature [K]                             305.270805           305.270805
 MD| ***************************************************************************

 Number of electrons:                                                       4096
 Number of occupied orbitals:                                               2048
 Number of molecular orbitals:                                              2048

 Number of orbital functions:                                              20480
 Number of independent orbital functions:                                  20480

 Extrapolation method: PS Nth order
 Extrapolation order:  1


 SCF WAVEFUNCTION OPTIMIZATION

  ----------------------------------- OT ---------------------------------------
  Minimizer      : DIIS                : direct inversion
                                         in the iterative subspace
                                         using   7 DIIS vectors
                                         safer DIIS on
  Preconditioner : FULL_KINETIC        : inversion of T + eS
  Precond_solver : DEFAULT
  stepsize       :    0.15000000                  energy_gap     :    0.20000000
  eps_taylor     :   0.10000E-15                  max_taylor     :             4
  ----------------------------------- OT ---------------------------------------

  Step     Update method      Time    Convergence         Total energy    Change
  ------------------------------------------------------------------------------
     1 OT DIIS     0.15E+00    7.6     0.00008001     -8808.4313177809 -8.81E+03
     2 OT DIIS     0.15E+00    2.3     0.00005271     -8808.4637521096 -3.24E-02
     3 OT DIIS     0.15E+00    2.3     0.00003321     -8808.4886555381 -2.49E-02
     4 OT DIIS     0.15E+00    2.3     0.00002251     -8808.5029494940 -1.43E-02
     5 OT DIIS     0.15E+00    2.3     0.00001406     -8808.5119312387 -8.98E-03
     6 OT DIIS     0.15E+00    2.3     0.00000837     -8808.5159239594 -3.99E-03

  *** SCF run converged in     6 steps ***


  Electronic density on regular grids:      -4096.0000084057       -0.0000084057
  Core density on regular grids:             4095.9999999941       -0.0000000059
  Total charge density on r-space grids:       -0.0000084116
  Total charge density g-space grids:          -0.0000084116

  Overlap energy of the core charge distribution:               0.00003948976808
  Self energy of the core charge distribution:             -22442.43995950839599
  Core Hamiltonian energy:                                   6592.75634629115848
  Hartree energy:                                            9168.97933287951309
  Exchange-correlation energy:                              -2127.81168311140937

  Total energy:                                             -8808.51592395936495

 ENERGY| Total FORCE_EVAL ( QS ) energy [a.u.]:            -8808.517235420829820

 MD| ***************************************************************************
 MD| Step number                                                               2
 MD| Time [fs]                                                          1.000000
 MD| Conserved quantity [hartree]                            -0.880616182102E+04
 MD| ---------------------------------------------------------------------------
 MD|                                          Instantaneous             Averages
 MD| CPU time per MD step [s]                     21.472455           105.839738
 MD| Energy drift per atom [K]          -0.815878362583E+02  -0.407939181292E+02
 MD| Potential energy [hartree]         -0.880851723542E+04  -0.880845035763E+04
 MD| Kinetic energy [hartree]            0.235541440540E+01   0.229066233297E+01
 MD| Temperature [K]                             323.031555           314.151180
 MD| ***************************************************************************

 Number of electrons:                                                       4096
 Number of occupied orbitals:                                               2048
 Number of molecular orbitals:                                              2048

 Number of orbital functions:                                              20480
 Number of independent orbital functions:                                  20480

 Extrapolation method: PS Nth order
 Extrapolation order:  2


 SCF WAVEFUNCTION OPTIMIZATION

  ----------------------------------- OT ---------------------------------------
  Minimizer      : DIIS                : direct inversion
                                         in the iterative subspace
                                         using   7 DIIS vectors
                                         safer DIIS on
  Preconditioner : FULL_KINETIC        : inversion of T + eS
  Precond_solver : DEFAULT
  stepsize       :    0.15000000                  energy_gap     :    0.20000000
  eps_taylor     :   0.10000E-15                  max_taylor     :             4
  ----------------------------------- OT ---------------------------------------

  Step     Update method      Time    Convergence         Total energy    Change
  ------------------------------------------------------------------------------
     1 OT DIIS     0.15E+00    7.6     0.00008989     -8808.3717026842 -8.81E+03
     2 OT DIIS     0.15E+00    2.3     0.00007428     -8808.4174170745 -4.57E-02
     3 OT DIIS     0.15E+00    2.3     0.00005876     -8808.4862096798 -6.88E-02
     4 OT DIIS     0.15E+00    2.3     0.00004979     -8808.5437032610 -5.75E-02
     5 OT DIIS     0.15E+00    2.3     0.00004006     -8808.6033903589 -5.97E-02
     6 OT DIIS     0.15E+00    2.7     0.00002840     -8808.6545558041 -5.12E-02
     7 OT DIIS     0.15E+00    2.7     0.00001854     -8808.6821011013 -2.75E-02
     8 OT DIIS     0.15E+00    2.7     0.00001252     -8808.6920709552 -9.97E-03
     9 OT DIIS     0.15E+00    2.7     0.00000891     -8808.6959116971 -3.84E-03

  *** SCF run converged in     9 steps ***


  Electronic density on regular grids:      -4096.0000081507       -0.0000081507
  Core density on regular grids:             4095.9999999985       -0.0000000015
  Total charge density on r-space grids:       -0.0000081522
  Total charge density g-space grids:          -0.0000081522

  Overlap energy of the core charge distribution:               0.00003222723578
  Self energy of the core charge distribution:             -22442.43995950839599
  Core Hamiltonian energy:                                   6579.97338044684329
  Hartree energy:                                            9178.11105445170324
  Exchange-correlation energy:                              -2124.34041931446973

  Total energy:                                             -8808.69591169708292

 ENERGY| Total FORCE_EVAL ( QS ) energy [a.u.]:            -8808.697759126878736

 MD| ***************************************************************************
 MD| Step number                                                               3
 MD| Time [fs]                                                          1.500000
 MD| Conserved quantity [hartree]                            -0.880616480058E+04
 MD| ---------------------------------------------------------------------------
 MD|                                          Instantaneous             Averages
 MD| CPU time per MD step [s]                     30.332064            80.670513
 MD| Energy drift per atom [K]          -0.822003815556E+02  -0.545960726047E+02
 MD| Potential energy [hartree]         -0.880869775913E+04  -0.880853282480E+04
 MD| Kinetic energy [hartree]            0.253295855124E+01   0.237142773906E+01
 MD| Temperature [K]                             347.380714           325.227691
 MD| ***************************************************************************

 Number of electrons:                                                       4096
 Number of occupied orbitals:                                               2048
 Number of molecular orbitals:                                              2048

 Number of orbital functions:                                              20480
 Number of independent orbital functions:                                  20480

 Extrapolation method: PS Nth order
 Extrapolation order:  3


 SCF WAVEFUNCTION OPTIMIZATION

  ----------------------------------- OT ---------------------------------------
  Minimizer      : DIIS                : direct inversion
                                         in the iterative subspace
                                         using   7 DIIS vectors
                                         safer DIIS on
  Preconditioner : FULL_KINETIC        : inversion of T + eS
  Precond_solver : DEFAULT
  stepsize       :    0.15000000                  energy_gap     :    0.20000000
  eps_taylor     :   0.10000E-15                  max_taylor     :             4
  ----------------------------------- OT ---------------------------------------

  Step     Update method      Time    Convergence         Total energy    Change
  ------------------------------------------------------------------------------
     1 OT DIIS     0.15E+00    7.6     0.00008299     -8808.7601077981 -8.81E+03
     2 OT DIIS     0.15E+00    2.3     0.00005686     -8808.7956243280 -3.55E-02
     3 OT DIIS     0.15E+00    2.3     0.00003614     -8808.8258180810 -3.02E-02
     4 OT DIIS     0.15E+00    2.3     0.00002270     -8808.8440370187 -1.82E-02
     5 OT DIIS     0.15E+00    2.3     0.00001489     -8808.8523337718 -8.30E-03
     6 OT DIIS     0.15E+00    2.3     0.00000969     -8808.8563581526 -4.02E-03

  *** SCF run converged in     6 steps ***


  Electronic density on regular grids:      -4096.0000085815       -0.0000085815
  Core density on regular grids:             4096.0000000009        0.0000000009
  Total charge density on r-space grids:       -0.0000085806
  Total charge density g-space grids:          -0.0000085806

  Overlap energy of the core charge distribution:               0.00002346611645
  Self energy of the core charge distribution:             -22442.43995950839599
  Core Hamiltonian energy:                                   6564.27155432304335
  Hartree energy:                                            9189.38288373515206
  Exchange-correlation energy:                              -2120.07086016854373

  Total energy:                                             -8808.85635815262685

 ENERGY| Total FORCE_EVAL ( QS ) energy [a.u.]:            -8808.858124684607901

 MD| ***************************************************************************
 MD| Step number                                                               4
 MD| Time [fs]                                                          2.000000
 MD| Conserved quantity [hartree]                            -0.880616980408E+04
 MD| ---------------------------------------------------------------------------
 MD|                                          Instantaneous             Averages
 MD| CPU time per MD step [s]                     22.280021            66.072890
 MD| Energy drift per atom [K]          -0.832290135129E+02  -0.617543078317E+02
 MD| Potential energy [hartree]         -0.880885812468E+04  -0.880861414977E+04
 MD| Kinetic energy [hartree]            0.268832060822E+01   0.245065095635E+01
 MD| Temperature [K]                             368.687728           336.092700
 MD| ***************************************************************************

 Number of electrons:                                                       4096
 Number of occupied orbitals:                                               2048
 Number of molecular orbitals:                                              2048

 Number of orbital functions:                                              20480
 Number of independent orbital functions:                                  20480

 Extrapolation method: PS Nth order
 Extrapolation order:  3


 SCF WAVEFUNCTION OPTIMIZATION

  ----------------------------------- OT ---------------------------------------
  Minimizer      : DIIS                : direct inversion
                                         in the iterative subspace
                                         using   7 DIIS vectors
                                         safer DIIS on
  Preconditioner : FULL_KINETIC        : inversion of T + eS
  Precond_solver : DEFAULT
  stepsize       :    0.15000000                  energy_gap     :    0.20000000
  eps_taylor     :   0.10000E-15                  max_taylor     :             4
  ----------------------------------- OT ---------------------------------------

  Step     Update method      Time    Convergence         Total energy    Change
  ------------------------------------------------------------------------------
     1 OT DIIS     0.15E+00    7.6     0.00005398     -8808.8521893176 -8.81E+03
     2 OT DIIS     0.15E+00    2.3     0.00004360     -8808.8685893715 -1.64E-02
     3 OT DIIS     0.15E+00    2.7     0.00002876     -8808.8948235803 -2.62E-02
     4 OT DIIS     0.15E+00    2.7     0.00002104     -8808.9082179865 -1.34E-02
     5 OT DIIS     0.15E+00    2.7     0.00001317     -8808.9185233989 -1.03E-02
     6 OT DIIS     0.15E+00    2.7     0.00000843     -8808.9223731469 -3.85E-03

  *** SCF run converged in     6 steps ***


  Electronic density on regular grids:      -4096.0000071800       -0.0000071800
  Core density on regular grids:             4095.9999999999       -0.0000000001
  Total charge density on r-space grids:       -0.0000071801
  Total charge density g-space grids:          -0.0000071801

  Overlap energy of the core charge distribution:               0.00001548082373
  Self energy of the core charge distribution:             -22442.43995950839599
  Core Hamiltonian energy:                                   6547.40960176533372
  Hartree energy:                                            9201.58657485403819
  Exchange-correlation energy:                              -2115.47860573867047

  Total energy:                                             -8808.92237314687191

 ENERGY| Total FORCE_EVAL ( QS ) energy [a.u.]:            -8808.923935905684630

 MD| ***************************************************************************
 MD| Step number                                                               5
 MD| Time [fs]                                                          2.500000
 MD| Conserved quantity [hartree]                            -0.880617229280E+04
 MD| ---------------------------------------------------------------------------
 MD|                                          Instantaneous             Averages
 MD| CPU time per MD step [s]                     23.719666            57.602245
 MD| Energy drift per atom [K]          -0.837406506085E+02  -0.661515763871E+02
 MD| Potential energy [hartree]         -0.880892393591E+04  -0.880867610700E+04
 MD| Kinetic energy [hartree]            0.275164310962E+01   0.251084938700E+01
 MD| Temperature [K]                             377.372045           344.348569
 MD| ***************************************************************************

 Number of electrons:                                                       4096
 Number of occupied orbitals:                                               2048
 Number of molecular orbitals:                                              2048

 Number of orbital functions:                                              20480
 Number of independent orbital functions:                                  20480

 Extrapolation method: PS Nth order
 Extrapolation order:  3


 SCF WAVEFUNCTION OPTIMIZATION

  ----------------------------------- OT ---------------------------------------
  Minimizer      : DIIS                : direct inversion
                                         in the iterative subspace
                                         using   7 DIIS vectors
                                         safer DIIS on
  Preconditioner : FULL_KINETIC        : inversion of T + eS
  Precond_solver : DEFAULT
  stepsize       :    0.15000000                  energy_gap     :    0.20000000
  eps_taylor     :   0.10000E-15                  max_taylor     :             4
  ----------------------------------- OT ---------------------------------------

  Step     Update method      Time    Convergence         Total energy    Change
  ------------------------------------------------------------------------------
     1 OT DIIS     0.15E+00    7.6     0.00004459     -8808.8152213356 -8.81E+03
     2 OT DIIS     0.15E+00    2.3     0.00003657     -8808.8265166143 -1.13E-02
     3 OT DIIS     0.15E+00    2.3     0.00002088     -8808.8466675470 -2.02E-02
     4 OT DIIS     0.15E+00    2.3     0.00001310     -8808.8539206878 -7.25E-03
     5 OT DIIS     0.15E+00    2.3     0.00000884     -8808.8567200873 -2.80E-03

  *** SCF run converged in     5 steps ***


  Electronic density on regular grids:      -4096.0000062625       -0.0000062625
  Core density on regular grids:             4095.9999999983       -0.0000000017
  Total charge density on r-space grids:       -0.0000062642
  Total charge density g-space grids:          -0.0000062642

  Overlap energy of the core charge distribution:               0.00000971624749
  Self energy of the core charge distribution:             -22442.43995950839599
  Core Hamiltonian energy:                                   6531.17269134656908
  Hartree energy:                                            9213.44171615274900
  Exchange-correlation energy:                              -2111.03117779442437

  Total energy:                                             -8808.85672008725487

 ENERGY| Total FORCE_EVAL ( QS ) energy [a.u.]:            -8808.858096507105074

 MD| ***************************************************************************
 MD| Step number                                                               6
 MD| Time [fs]                                                          3.000000
 MD| Conserved quantity [hartree]                            -0.880617011615E+04
 MD| ---------------------------------------------------------------------------
 MD|                                          Instantaneous             Averages
 MD| CPU time per MD step [s]                     19.897101            51.318055
 MD| Energy drift per atom [K]          -0.832931693718E+02  -0.690085085512E+02
 MD| Potential energy [hartree]         -0.880885809651E+04  -0.880870643858E+04
 MD| Kinetic energy [hartree]            0.268798036197E+01   0.254037121617E+01
 MD| Temperature [K]                             368.641065           348.397319
 MD| ***************************************************************************

 Number of electrons:                                                       4096
 Number of occupied orbitals:                                               2048
 Number of molecular orbitals:                                              2048

 Number of orbital functions:                                              20480
 Number of independent orbital functions:                                  20480

 Extrapolation method: PS Nth order
 Extrapolation order:  3


 SCF WAVEFUNCTION OPTIMIZATION

  ----------------------------------- OT ---------------------------------------
  Minimizer      : DIIS                : direct inversion
                                         in the iterative subspace
                                         using   7 DIIS vectors
                                         safer DIIS on
  Preconditioner : FULL_KINETIC        : inversion of T + eS
  Precond_solver : DEFAULT
  stepsize       :    0.15000000                  energy_gap     :    0.20000000
  eps_taylor     :   0.10000E-15                  max_taylor     :             4
  ----------------------------------- OT ---------------------------------------

  Step     Update method      Time    Convergence         Total energy    Change
  ------------------------------------------------------------------------------
     1 OT DIIS     0.15E+00    7.6     0.00004551     -8808.6384751261 -8.81E+03
     2 OT DIIS     0.15E+00    2.3     0.00003729     -8808.6502420755 -1.18E-02
     3 OT DIIS     0.15E+00    2.3     0.00002023     -8808.6710757735 -2.08E-02
     4 OT DIIS     0.15E+00    2.3     0.00001308     -8808.6771455956 -6.07E-03
     5 OT DIIS     0.15E+00    2.3     0.00000755     -8808.6802143642 -3.07E-03

  *** SCF run converged in     5 steps ***


  Electronic density on regular grids:      -4096.0000050933       -0.0000050933
  Core density on regular grids:             4095.9999999989       -0.0000000011
  Total charge density on r-space grids:       -0.0000050945
  Total charge density g-space grids:          -0.0000050945

  Overlap energy of the core charge distribution:               0.00000622091706
  Self energy of the core charge distribution:             -22442.43995950839599
  Core Hamiltonian energy:                                   6517.03118016572898
  Hartree energy:                                            9223.86272425622519
  Exchange-correlation energy:                              -2107.13416549866088

  Total energy:                                             -8808.68021436418348

 ENERGY| Total FORCE_EVAL ( QS ) energy [a.u.]:            -8808.681148161162128

 MD| ***************************************************************************
 MD| Step number                                                               7
 MD| Time [fs]                                                          3.500000
 MD| Conserved quantity [hartree]                            -0.880616596043E+04
 MD| ---------------------------------------------------------------------------
 MD|                                          Instantaneous             Averages
 MD| CPU time per MD step [s]                     19.903423            46.830250
 MD| Energy drift per atom [K]          -0.824388264402E+02  -0.709271253925E+02
 MD| Potential energy [hartree]         -0.880868114816E+04  -0.880870282566E+04
 MD| Kinetic energy [hartree]            0.251518773515E+01   0.253677357602E+01
 MD| Temperature [K]                             344.943549           347.903923
 MD| ***************************************************************************

 Number of electrons:                                                       4096
 Number of occupied orbitals:                                               2048
 Number of molecular orbitals:                                              2048

 Number of orbital functions:                                              20480
 Number of independent orbital functions:                                  20480

 Extrapolation method: PS Nth order
 Extrapolation order:  3


 SCF WAVEFUNCTION OPTIMIZATION

  ----------------------------------- OT ---------------------------------------
  Minimizer      : DIIS                : direct inversion
                                         in the iterative subspace
                                         using   7 DIIS vectors
                                         safer DIIS on
  Preconditioner : FULL_KINETIC        : inversion of T + eS
  Precond_solver : DEFAULT
  stepsize       :    0.15000000                  energy_gap     :    0.20000000
  eps_taylor     :   0.10000E-15                  max_taylor     :             4
  ----------------------------------- OT ---------------------------------------

  Step     Update method      Time    Convergence         Total energy    Change
  ------------------------------------------------------------------------------
     1 OT DIIS     0.15E+00    7.6     0.00004640     -8808.4083435746 -8.81E+03
     2 OT DIIS     0.15E+00    2.3     0.00003772     -8808.4205149727 -1.22E-02
     3 OT DIIS     0.15E+00    2.3     0.00002094     -8808.4409403360 -2.04E-02
     4 OT DIIS     0.15E+00    2.3     0.00001360     -8808.4479497288 -7.01E-03
     5 OT DIIS     0.15E+00    2.3     0.00001073     -8808.4504245018 -2.47E-03
     6 OT DIIS     0.15E+00    2.3     0.00000737     -8808.4530067504 -2.58E-03

  *** SCF run converged in     6 steps ***


  Electronic density on regular grids:      -4096.0000038470       -0.0000038470
  Core density on regular grids:             4096.0000000008        0.0000000008
  Total charge density on r-space grids:       -0.0000038462
  Total charge density g-space grids:          -0.0000038462

  Overlap energy of the core charge distribution:               0.00000436187068
  Self energy of the core charge distribution:             -22442.43995950839599
  Core Hamiltonian energy:                                   6506.06509416700646
  Hartree energy:                                            9232.01158507902983
  Exchange-correlation energy:                              -2104.08973084994159

  Total energy:                                             -8808.45300675043109

 ENERGY| Total FORCE_EVAL ( QS ) energy [a.u.]:            -8808.454571706935894

 MD| ***************************************************************************
 MD| Step number                                                               8
 MD| Time [fs]                                                          4.000000
 MD| Conserved quantity [hartree]                            -0.880616115335E+04
 MD| ---------------------------------------------------------------------------
 MD|                                          Instantaneous             Averages
 MD| CPU time per MD step [s]                     22.238901            43.756332
 MD| Energy drift per atom [K]          -0.814505764258E+02  -0.722425567717E+02
 MD| Potential energy [hartree]         -0.880845457171E+04  -0.880867179392E+04
 MD| Kinetic energy [hartree]            0.229341835468E+01   0.250635417335E+01
 MD| Temperature [K]                             314.529152           343.732077
 MD| ***************************************************************************

 Number of electrons:                                                       4096
 Number of occupied orbitals:                                               2048
 Number of molecular orbitals:                                              2048

 Number of orbital functions:                                              20480
 Number of independent orbital functions:                                  20480

 Extrapolation method: PS Nth order
 Extrapolation order:  3


 SCF WAVEFUNCTION OPTIMIZATION

  ----------------------------------- OT ---------------------------------------
  Minimizer      : DIIS                : direct inversion
                                         in the iterative subspace
                                         using   7 DIIS vectors
                                         safer DIIS on
  Preconditioner : FULL_KINETIC        : inversion of T + eS
  Precond_solver : DEFAULT
  stepsize       :    0.15000000                  energy_gap     :    0.20000000
  eps_taylor     :   0.10000E-15                  max_taylor     :             4
  ----------------------------------- OT ---------------------------------------

  Step     Update method      Time    Convergence         Total energy    Change
  ------------------------------------------------------------------------------
     1 OT DIIS     0.15E+00    7.6     0.00004051     -8808.2146912681 -8.81E+03
     2 OT DIIS     0.15E+00    2.3     0.00003407     -8808.2241541197 -9.46E-03
     3 OT DIIS     0.15E+00    2.3     0.00001718     -8808.2450187645 -2.09E-02
     4 OT DIIS     0.15E+00    2.3     0.00001245     -8808.2495176058 -4.50E-03
     5 OT DIIS     0.15E+00    2.3     0.00000891     -8808.2522166848 -2.70E-03

  *** SCF run converged in     5 steps ***


  Electronic density on regular grids:      -4096.0000022244       -0.0000022244
  Core density on regular grids:             4096.0000000016        0.0000000016
  Total charge density on r-space grids:       -0.0000022227
  Total charge density g-space grids:          -0.0000022227

  Overlap energy of the core charge distribution:               0.00000353692387
  Self energy of the core charge distribution:             -22442.43995950839599
  Core Hamiltonian energy:                                   6498.75945276328093
  Hartree energy:                                            9237.49746267911178
  Exchange-correlation energy:                              -2102.06917615574912

  Total energy:                                             -8808.25221668482845

 ENERGY| Total FORCE_EVAL ( QS ) energy [a.u.]:            -8808.253874463371176

 MD| ***************************************************************************
 MD| Step number                                                               9
 MD| Time [fs]                                                          4.500000
 MD| Conserved quantity [hartree]                            -0.880615635838E+04
 MD| ---------------------------------------------------------------------------
 MD|                                          Instantaneous             Averages
 MD| CPU time per MD step [s]                     19.887871            41.104280
 MD| Energy drift per atom [K]          -0.804648147368E+02  -0.731561409900E+02
 MD| Potential energy [hartree]         -0.880825387446E+04  -0.880862535842E+04
 MD| Kinetic energy [hartree]            0.209751608108E+01   0.246092771866E+01
 MD| Temperature [K]                             287.662281           337.502099
 MD| ***************************************************************************

 Number of electrons:                                                       4096
 Number of occupied orbitals:                                               2048
 Number of molecular orbitals:                                              2048

 Number of orbital functions:                                              20480
 Number of independent orbital functions:                                  20480

 Extrapolation method: PS Nth order
 Extrapolation order:  3


 SCF WAVEFUNCTION OPTIMIZATION

  ----------------------------------- OT ---------------------------------------
  Minimizer      : DIIS                : direct inversion
                                         in the iterative subspace
                                         using   7 DIIS vectors
                                         safer DIIS on
  Preconditioner : FULL_KINETIC        : inversion of T + eS
  Precond_solver : DEFAULT
  stepsize       :    0.15000000                  energy_gap     :    0.20000000
  eps_taylor     :   0.10000E-15                  max_taylor     :             4
  ----------------------------------- OT ---------------------------------------

  Step     Update method      Time    Convergence         Total energy    Change
  ------------------------------------------------------------------------------
     1 OT DIIS     0.15E+00    7.6     0.00004012     -8808.1037242139 -8.81E+03
     2 OT DIIS     0.15E+00    2.3     0.00003342     -8808.1129230819 -9.20E-03
     3 OT DIIS     0.15E+00    2.3     0.00002048     -8808.1296921038 -1.68E-02
     4 OT DIIS     0.15E+00    2.3     0.00001263     -8808.1379704854 -8.28E-03
     5 OT DIIS     0.15E+00    2.3     0.00001017     -8808.1402123732 -2.24E-03
     6 OT DIIS     0.15E+00    2.3     0.00000715     -8808.1425478400 -2.34E-03

  *** SCF run converged in     6 steps ***


  Electronic density on regular grids:      -4096.0000006754       -0.0000006754
  Core density on regular grids:             4096.0000000008        0.0000000008
  Total charge density on r-space grids:       -0.0000006746
  Total charge density g-space grids:          -0.0000006746

  Overlap energy of the core charge distribution:               0.00000340787979
  Self energy of the core charge distribution:             -22442.43995950839599
  Core Hamiltonian energy:                                   6495.52248626530036
  Hartree energy:                                            9239.94934184970771
  Exchange-correlation energy:                              -2101.17441985451433

  Total energy:                                             -8808.14254784002151

 ENERGY| Total FORCE_EVAL ( QS ) energy [a.u.]:            -8808.143948966939206

 MD| ***************************************************************************
 MD| Step number                                                              10
 MD| Time [fs]                                                          5.000000
 MD| Conserved quantity [hartree]                            -0.880615521068E+04
 MD| ---------------------------------------------------------------------------
 MD|                                          Instantaneous             Averages
 MD| CPU time per MD step [s]                     22.248712            39.218724
 MD| Energy drift per atom [K]          -0.802288675694E+02  -0.738634136480E+02
 MD| Potential energy [hartree]         -0.880814394897E+04  -0.880857721748E+04
 MD| Kinetic energy [hartree]            0.198873828556E+01   0.241370877535E+01
 MD| Temperature [K]                             272.744031           331.026293
 MD| ***************************************************************************

 -------------------------------------------------------------------------------
 -                                                                             -
 -                                DBCSR STATISTICS                             -
 -                                                                             -
 -------------------------------------------------------------------------------
 COUNTER                                    TOTAL       BLAS       SMM       ACC
 flops     9 x    32 x    32          13287555072     100.0%      0.0%      0.0%
 flops    22 x    32 x    32          16240345088     100.0%      0.0%      0.0%
 flops     9 x     9 x   128        5648350040064     100.0%      0.0%      0.0%
 flops     9 x    22 x   128        7855827369984     100.0%      0.0%      0.0%
 flops    22 x     9 x   128        7866447519744     100.0%      0.0%      0.0%
 flops    22 x    22 x   128       11004752822272     100.0%      0.0%      0.0%
 flops   128 x   128 x   128       14465449852928     100.0%      0.0%      0.0%
 flops     9 x    32 x     9       23722505551872     100.0%      0.0%      0.0%
 flops     9 x    32 x    22       33153656684544     100.0%      0.0%      0.0%
 flops    22 x    32 x     9       33153656684544     100.0%      0.0%      0.0%
 flops    22 x    32 x    22       46115724689408     100.0%      0.0%      0.0%
 flops   128 x   128 x  1280       77824807403520     100.0%      0.0%      0.0%
 flops  1280 x   128 x   128       95863670046720     100.0%      0.0%      0.0%
 flops  1280 x   128 x  1280      218184338636800     100.0%      0.0%      0.0%
 flops inhomo. stacks                           0       0.0%      0.0%      0.0%
 flops total                       574.888715E+12     100.0%      0.0%      0.0%
 flops max/rank                      2.267457E+12     100.0%      0.0%      0.0%
 matmuls inhomo. stacks                         0       0.0%      0.0%      0.0%
 matmuls total                        11978020992     100.0%      0.0%      0.0%
 number of processed stacks              25115632     100.0%      0.0%      0.0%
 average stack size                                   476.9       0.0       0.0
 marketing flops                     1.147134E+15
 -------------------------------------------------------------------------------
 # multiplications                           2431
 max memory usage/rank             426.717184E+06
 # max total images/rank                        1
 # max 3D layers                                1
 # MPI messages exchanged                18670080
 MPI messages size (bytes):
  total size                        22.426243E+12
  min size                           0.000000E+00
  max size                          13.107200E+06
  average size                       1.201186E+06
 MPI breakdown and total messages size (bytes):
             size <=      128              124080                        0
       128 < size <=     8192                   0                        0
      8192 < size <=    32768                2640                 86507520
     32768 < size <=   131072             8609280            1128435548160
    131072 < size <=  4194304             9446400           14905573424160
   4194304 < size <= 16777216              487680            6392119296000
  16777216 < size                               0                        0
 -------------------------------------------------------------------------------
 -                                                                             -
 -                      DBCSR MESSAGE PASSING PERFORMANCE                      -
 -                                                                             -
 -------------------------------------------------------------------------------
 ROUTINE             CALLS      AVE VOLUME [Bytes]
 MP_Bcast               15                     12.
 MP_Allreduce        12959                     67.
 MP_Alltoall          9270                 252484.
 MP_ISend           155540                 565159.
 MP_IRecv           155540                 564910.
 -------------------------------------------------------------------------------

 -------------------------------------------------------------------------------
 -                                                                             -
 -                                GRID STATISTICS                              -
 -                                                                             -
 -------------------------------------------------------------------------------
 LP    KERNEL             BACKEND                              COUNT     PERCENT
 1     collocate ortho    REF                              135745301      21.07%
 1     integrate ortho    REF                              130493488      20.25%
 2     integrate ortho    REF                               88995618      13.81%
 2     collocate ortho    REF                               84560451      13.12%
 0     collocate ortho    REF                               75171698      11.67%
 0     integrate ortho    REF                               68664071      10.66%
 3     integrate ortho    REF                               26282166       4.08%
 3     collocate ortho    REF                               20755016       3.22%
 0     collocate general  REF                                4325376       0.67%
 1     integrate general  REF                                4325376       0.67%
 4     integrate ortho    REF                                3293394       0.51%
 4     collocate ortho    REF                                1638196       0.25%
 5     integrate ortho    REF                                 141925       0.02%
 -------------------------------------------------------------------------------

 MEMORY| Estimated peak process memory [MiB]                                 407

 -------------------------------------------------------------------------------
 -                                                                             -
 -                         MESSAGE PASSING PERFORMANCE                         -
 -                                                                             -
 -------------------------------------------------------------------------------

 ROUTINE             CALLS      AVE VOLUME [Bytes]
 MP_Group                4
 MP_Bcast             4017                  57863.
 MP_Allreduce        11015                   1322.
 MP_Sync               136
 MP_Alltoall          2465                1828181.
 MP_ISendRecv       129540                  16416.
 MP_Wait            156060
 MP_comm_split          66
 MP_ISend            23892                  69215.
 MP_IRecv            23892                  69215.
 -------------------------------------------------------------------------------


 -------------------------------------------------------------------------------
 -                                                                             -
 -                           R E F E R E N C E S                               -
 -                                                                             -
 -------------------------------------------------------------------------------
 
 CP2K version 8.2, the CP2K developers group (2021).
 CP2K is freely available from https://www.cp2k.org/ .

 Kuehne,Thomas D.; Iannuzzi,Marcella; Del Ben,Mauro;
 Rybkin,Vladimir V.; Seewald,Patrick; Stein,Frederick; Laino,Teodoro;
 Khaliullin,Rustam Z.; Schuett,Ole; Schiffmann,Florian; Golze,Dorothea;
 Wilhelm,Jan; Chulkov,Sergey; Bani-Hashemian,Mohammad Hossein;
 Weber,Valery; Borstnik,Urban; Taillefumier,Mathieu;
 Jakobovits,Alice Shoshana; Lazzaro,Alfio; Pabst,Hans; Mueller,Tiziano;
 Schade,Robert; Guidon,Manuel; Andermatt,Samuel; Holmberg,Nico;
 Schenter,Gregory K.; Hehn,Anna; Bussy,Augustin; Belleflamme,Fabian;
 Tabacchi,Gloria; Gloess,Andreas; Lass,Michael; Bethune,Iain;
 Mundy,Christopher J.; Plessl,Christian; Watkins,Matt;
 VandeVondele,Joost; Krack,Matthias; Hutter,Juerg. 
 The Journal of Chemical Physics, 152 (19), (2020). 
 CP2K: An electronic structure and molecular dynamics software package -
 Quickstep: Efficient and accurate electronic structure calculations.
 https://doi.org/10.1063/5.0007045

 Schuett, Ole; Messmer, Peter; Hutter, Juerg; VandeVondele, Joost. 
 Electronic Structure Calculations on Graphics Processing Units, John
 Wiley & Sons, Ltd, 173-190 (2016). 
 GPU-Accelerated Sparse Matrix-Matrix Multiplication for
 Linear Scaling Density Functional Theory.
 https://doi.org/10.1002/9781118670712.ch8

 Borstnik, U; VandeVondele, J; Weber, V; Hutter, J. 
 PARALLEL COMPUTING, 40 (5-6), 47-58 (2014). 
 Sparse matrix multiplication: The distributed block-compressed sparse
 row library.
 https://doi.org/10.1016/j.parco.2014.03.012

 Hutter, J; Iannuzzi, M; Schiffmann, F; VandeVondele, J. 
 WIREs Comput Mol Sci., 4 (1), 15-25 (2014). 
 CP2K: atomistic simulations of condensed matter systems.
 https://doi.org/10.1002/wcms.1159

 Marek, A; Blum, V; Johanni, R; Havu, V; Lang, B; Auckenthaler, T;
 Heinecke, A; Bungartz, H; Lederer, H. 
 Journal of Physics: Condensed Matter, 26 (21), (2014). 
 The ELPA library: scalable parallel eigenvalue solutions for
 electronic structure
 theory and computational science.
 https://doi.org/10.1088/0953-8984/26/21/213201

 Krack, M. 
 THEORETICAL CHEMISTRY ACCOUNTS, 114 (1-3), 145-152 (2005). 
 Pseudopotentials for H to Kr optimized for gradient-corrected
 exchange-correlation functionals.
 https://doi.org/10.1007/s00214-005-0655-y

 VandeVondele, J; Krack, M; Mohamed, F; Parrinello, M; Chassaing, T;
 Hutter, J. COMPUTER PHYSICS COMMUNICATIONS, 167 (2), 103-128 (2005). 
 QUICKSTEP: Fast and accurate density functional calculations using a
 mixed Gaussian and plane waves approach.
 https://doi.org/10.1016/j.cpc.2004.12.014

 Frigo, M; Johnson, SG. 
 PROCEEDINGS OF THE IEEE, 93 (2), 216-231 (2005). 
 The design and implementation of FFTW3.
 https://doi.org/10.1109/JPROC.2004.840301

 VandeVondele, J; Hutter, J. 
 JOURNAL OF CHEMICAL PHYSICS, 118 (10), 4365-4369 (2003). 
 An efficient orbital transformation method for electronic structure
 calculations.
 https://doi.org/10.1063/1.1543154

 Hartwigsen, C; Goedecker, S; Hutter, J. 
 PHYSICAL REVIEW B, 58 (7), 3641-3662 (1998). 
 Relativistic separable dual-space Gaussian pseudopotentials from H to Rn.
 https://doi.org/10.1103/PhysRevB.58.3641

 Lippert, G; Hutter, J; Parrinello, M. 
 MOLECULAR PHYSICS, 92 (3), 477-487 (1997). 
 A hybrid Gaussian and plane wave density functional scheme.
 https://doi.org/10.1080/002689797170220

 Goedecker, S; Teter, M; Hutter, J. 
 PHYSICAL REVIEW B, 54 (3), 1703-1710 (1996). 
 Separable dual-space Gaussian pseudopotentials.
 https://doi.org/10.1103/PhysRevB.54.1703


 -------------------------------------------------------------------------------
 -                                                                             -
 -                                T I M I N G                                  -
 -                                                                             -
 -------------------------------------------------------------------------------
 SUBROUTINE                       CALLS  ASD         SELF TIME        TOTAL TIME
                                MAXIMUM       AVERAGE  MAXIMUM  AVERAGE  MAXIMUM
 CP2K                                 1  1.0    0.021    0.023  392.370  392.371
 qs_mol_dyn_low                       1  2.0    0.004    0.006  392.200  392.223
 qs_forces                           11  3.9    0.007    0.008  392.051  392.052
 qs_energies                         11  4.9    0.002    0.003  384.779  384.866
 scf_env_do_scf                      11  5.9    0.001    0.002  352.331  352.335
 scf_env_do_scf_inner_loop          116  6.6    0.005    0.011  290.908  290.911
 velocity_verlet                     10  3.0    0.003    0.004  239.959  239.960
 dbcsr_multiply_generic            2431 12.5    0.210    0.226  235.829  239.619
 qs_scf_new_mos                     116  7.6    0.001    0.002  224.267  225.056
 qs_scf_loop_do_ot                  116  8.6    0.001    0.001  224.266  225.055
 ot_scf_mini                        116  9.6    0.004    0.005  210.071  211.023
 multiply_cannon                   2431 13.5    0.242    0.299  197.934  205.599
 multiply_cannon_loop              2431 14.5    0.461    0.553  192.917  200.455
 multiply_cannon_multrec          38896 15.5  127.046  140.846  127.063  140.862
 ot_mini                            116 10.6    0.002    0.003  134.702  135.754
 mp_waitall_1                    482232 15.9   64.062   77.818   64.062   77.818
 qs_ot_get_derivative               116 11.6    0.001    0.002   69.981   70.951
 apply_preconditioner_dbcsr         127 12.6    0.000    0.001   65.896   67.240
 apply_single                       127 13.6    0.001    0.001   65.896   67.239
 ot_diis_step                       116 11.6    0.011    0.013   64.258   64.259
 init_scf_loop                       11  6.9    0.001    0.001   61.204   61.209
 multiply_cannon_metrocomm1       38896 15.5    0.149    0.177   47.453   60.557
 rebuild_ks_matrix                  127  8.3    0.002    0.003   53.254   53.991
 qs_ks_build_kohn_sham_matrix       127  9.3    0.022    0.026   53.252   53.990
 prepare_preconditioner              11  7.9    0.000    0.000   53.704   53.809
 make_preconditioner                 11  8.9    0.000    0.000   53.704   53.809
 make_full_inverse_cholesky          11  9.9    0.001    0.001   52.327   52.607
 qs_ks_update_qs_env                127  7.6    0.002    0.003   48.321   48.998
 qs_ot_get_p                        127 10.4    0.001    0.002   38.983   40.171
 cp_fm_cholesky_invert               11 10.9   30.024   30.030   30.024   30.030
 make_m2s                          4862 13.5    0.132    0.203   26.437   27.825
 mp_irecv_dv                      97746 16.0   12.768   27.749   12.768   27.749
 qs_ot_get_derivative_diag           62 12.2    0.002    0.002   25.306   25.878
 qs_rho_update_rho                  127  7.7    0.001    0.002   24.111   24.266
 calculate_rho_elec                 127  8.7    0.039    0.041   24.110   24.265
 qs_ot_p2m_diag                      66 11.2    0.064    0.076   23.060   23.128
 make_images                       4862 14.5    0.410    0.468   21.048   22.936
 cp_dbcsr_syevd                      66 12.2    0.012    0.014   21.445   21.464
 cp_fm_diag_elpa                     66 13.2    0.000    0.001   21.294   21.305
 cp_fm_redistribute_end              66 14.2   18.161   21.152   18.207   21.158
 sum_up_and_integrate               127 10.3    0.084    0.110   21.101   21.152
 integrate_v_rspace                 127 11.3    0.005    0.007   21.017   21.072
 cp_fm_diag_elpa_base                66 14.2    2.901   20.707    2.931   20.851
 pw_transfer                       1535 11.6    0.208    0.246   19.063   20.123
 cp_fm_cholesky_decompose            22 10.9   20.031   20.087   20.031   20.087
 fft_wrap_pw1pw2                   1281 12.7    0.013    0.017   18.738   19.808
 fft_wrap_pw1pw2_140                519 13.2    0.577    0.601   17.401   18.632
 fft3d_ps                          1281 14.7    3.156    5.056   17.376   18.415
 init_scf_run                        11  5.9    0.000    0.002   17.560   17.568
 scf_env_initial_rho_setup           11  6.9    0.000    0.001   17.560   17.568
 qs_ot_get_derivative_taylor         54 13.0    0.002    0.002   16.874   17.301
 calculate_dm_sparse                127  9.5    0.001    0.001   15.658   16.581
 wfi_extrapolate                     11  7.9    0.003    0.004   15.900   15.900
 multiply_cannon_metrocomm4       36465 15.5    0.130    0.155    8.354   15.709
 hybrid_alltoall_any               5031 16.4    0.491    8.407   11.310   14.782
 multiply_cannon_metrocomm2       36465 15.5    0.168    0.201    5.089   14.781
 make_images_data                  4862 15.5    0.085    0.147   11.947   14.682
 grid_collocate_task_list           127  9.7   12.816   14.374   12.816   14.374
 mp_sum_l                         11831 13.4    8.800   13.257    8.800   13.257
 mp_alltoall_z22v                  1281 16.7   12.893   13.069   12.893   13.069
 grid_integrate_task_list           127 12.3   11.617   12.316   11.617   12.316
 multiply_cannon_metrocomm3       38896 15.5    0.103    0.119    4.496   12.124
 rs_pw_transfer                    1038 11.9    0.021    0.029   10.447   11.874
 qs_energies_init_hamiltonians       11  5.9    0.001    0.001   11.709   11.709
 yz_to_x                            265 15.9    0.163    0.211   11.447   11.550
 qs_ot_get_orbitals                 116 10.6    0.001    0.001   11.103   11.460
 qs_env_update_s_mstruct             11  6.9    0.000    0.000   11.053   11.116
 calculate_rho_core                  11  7.9    0.079    0.084   10.712   10.787
 density_rs2pw                      127  9.7    0.007    0.009    9.291   10.692
 cp_dbcsr_sm_fm_multiply             37  9.5    0.003    0.003    9.880    9.889
 cp_dbcsr_sm_fm_multiply_core        37 10.5    0.000    0.000    8.182    8.391
 mp_sum_d                          4424 12.1    5.638    8.379    5.638    8.379
 -------------------------------------------------------------------------------

 The number of warnings for this run is : 1
 
 -------------------------------------------------------------------------------
  **** **** ******  **  PROGRAM ENDED AT                 2022-01-17 15:38:16.131
 ***** ** ***  *** **   PROGRAM RAN ON                                 nid001652
 **    ****   ******    PROGRAM RAN BY                                    hjudge
 ***** **    ** ** **   PROGRAM PROCESS ID                                186330
  **** **  *******  **  PROGRAM STOPPED IN /mnt/lustre/a2fs-work2/work/z19/z19/h
                                           judge/CUG/archer2/CPU/CP2K/H2O-512/2N
                                           ODES/128CPN/1THREADS
