 DBCSR| CPU Multiplication driver                                           BLAS
 DBCSR| Multrec recursion limit                                              512
 DBCSR| Multiplication stack size                                           1000
 DBCSR| Maximum elements for images                                    UNLIMITED
 DBCSR| Multiplicative factor virtual images                                   1
 DBCSR| Use multiplication densification                                       T
 DBCSR| Multiplication size stacks                                             3
 DBCSR| Use memory pool for CPU allocation                                     F
 DBCSR| Number of 3D layers                                               SINGLE
 DBCSR| Use MPI memory allocation                                              F
 DBCSR| Use RMA algorithm                                                      F
 DBCSR| Use Communication thread                                               T
 DBCSR| Communication thread load                                             30
 DBCSR| MPI: My node id                                                        0
 DBCSR| MPI: Number of nodes                                                   8
 DBCSR| OMP: Current number of threads                                        16
 DBCSR| OMP: Max number of threads                                            16
 DBCSR| Split modifier for TAS multiplication algorithm                  1.0E+00


  **** **** ******  **  PROGRAM STARTED AT               2022-01-17 16:28:15.147
 ***** ** ***  *** **   PROGRAM STARTED ON                             nid001698
 **    ****   ******    PROGRAM STARTED BY                                hjudge
 ***** **    ** ** **   PROGRAM PROCESS ID                                 12039
  **** **  *******  **  PROGRAM STARTED IN /mnt/lustre/a2fs-work2/work/z19/z19/h
                                           judge/CUG/archer2/CPU/CP2K/H2O-512/1N
                                           ODES/128CPN/16THREADS

 CP2K| version string:                                          CP2K version 8.2
 CP2K| source code revision number:                                  git:310b7ab
 CP2K| cp2kflags: omp libint fftw3 libxc elpa parallel mpi3 scalapack plumed2   
 CP2K| is freely available from                            https://www.cp2k.org/
 CP2K| Program compiled at                          Thu Dec  2 10:30:45 GMT 2021
 CP2K| Program compiled on                                                  ln02
 CP2K| Program compiled for                                              ARCHER2
 CP2K| Data directory path         /work/y07/shared/apps/core/cp2k/cp2k-8.2/data
 CP2K| Input file name                                               H2O-512.inp

 GLOBAL| Force Environment number                                              1
 GLOBAL| Basis set file name                                      GTH_BASIS_SETS
 GLOBAL| Potential file name                                           POTENTIAL
 GLOBAL| MM Potential file name                                     MM_POTENTIAL
 GLOBAL| Coordinate file name                                      __STD_INPUT__
 GLOBAL| Method name                                                        CP2K
 GLOBAL| Project name                                                    H2O-512
 GLOBAL| Run type                                                             MD
 GLOBAL| FFT library                                                       FFTW3
 GLOBAL| Diagonalization library                                            ELPA
 GLOBAL| Minimum number of eigenvectors for ELPA usage                        16
 GLOBAL| Orthonormality check for eigenvectors                          DISABLED
 GLOBAL| Matrix multiplication library                                    SCALAP
 GLOBAL| All-to-all communication in single precision                          F
 GLOBAL| FFTs using library dependent lengths                                  F
 GLOBAL| Grid backend                                                       AUTO
 GLOBAL| Global print level                                                  LOW
 GLOBAL| MPI I/O enabled                                                       T
 GLOBAL| Total number of message passing processes                             8
 GLOBAL| Number of threads for this process                                   16
 GLOBAL| This output is from process                                           0
 GLOBAL| CPU model name                          AMD EPYC 7742 64-Core Processor
 GLOBAL| CPUID                                                              1002

 MEMORY| system memory details [Kb]
 MEMORY|                        rank 0           min           max       average
 MEMORY| MemTotal            263528088     263528088     263528088     263528088
 MEMORY| MemFree             252896756     252896756     252896756     252896756
 MEMORY| Buffers                 36464         36464         36464         36464
 MEMORY| Cached                1514656       1514656       1514656       1514656
 MEMORY| Slab                  1566892       1566892       1566892       1566892
 MEMORY| SReclaimable            92048         92048         92048         92048
 MEMORY| MemLikelyFree       254539924     254539924     254539924     254539924


 GENERATE|  Preliminary Number of Bonds generated:                             0
 GENERATE|  Achieved consistency in connectivity generation.

 *******************************************************************************
 *******************************************************************************
 **                                                                           **
 **     #####                         ##              ##                      **
 **    ##   ##            ##          ##              ##                      **
 **   ##     ##                       ##            ######                    **
 **   ##     ##  ##   ##  ##   #####  ##  ##   ####   ##    #####    #####    **
 **   ##     ##  ##   ##  ##  ##      ## ##   ##      ##   ##   ##  ##   ##   **
 **   ##  ## ##  ##   ##  ##  ##      ####     ###    ##   ######   ######    **
 **    ##  ###   ##   ##  ##  ##      ## ##      ##   ##   ##       ##        **
 **     #######   #####   ##   #####  ##  ##  ####    ##    #####   ##        **
 **           ##                                                    ##        **
 **                                                                           **
 **                                                ... make the atoms dance   **
 **                                                                           **
 **            Copyright (C) by CP2K developers group (2000-2021)             **
 **                      J. Chem. Phys. 152, 194103 (2020)                    **
 **                                                                           **
 *******************************************************************************


 TOTAL NUMBERS AND MAXIMUM NUMBERS

  Total number of            - Atomic kinds:                                   2
                             - Atoms:                                       1536
                             - Shell sets:                                  3072
                             - Shells:                                      9216
                             - Primitive Cartesian functions:              10752
                             - Cartesian basis functions:                  21504
                             - Spherical basis functions:                  20480

  Maximum angular momentum of- Orbital basis functions:                        2
                             - Local part of the GTH pseudopotential:          2
                             - Non-local part of the GTH pseudopotential:      0


 SCF PARAMETERS         Density guess:                                    ATOMIC
                        --------------------------------------------------------
                        max_scf:                                              50
                        max_scf_history:                                       0
                        max_diis:                                              4
                        --------------------------------------------------------
                        eps_scf:                                        1.00E-05
                        eps_scf_history:                                0.00E+00
                        eps_diis:                                       1.00E-01
                        eps_eigval:                                     1.00E-05
                        --------------------------------------------------------
                        level_shift [a.u.]:                                 0.00
                        --------------------------------------------------------
                        No outer SCF

 MD_PAR| Molecular dynamics protocol (MD input parameters)
 MD_PAR| Ensemble type                                                       NVE
 MD_PAR| Number of time steps                                                 10
 MD_PAR| Time step [fs]                                                 0.500000
 MD_PAR| Temperature [K]                                              300.000000
 MD_PAR| Temperature tolerance [K]                                      0.000000
 MD_PAR| Print MD information every                                    1 step(s)
 MD_PAR| File type   Print frequency [steps]                          File names
 MD_PAR| Coordinates          1                                H2O-512-pos-1.xyz
 MD_PAR| Velocities           1                                H2O-512-vel-1.xyz
 MD_PAR| Energies             1                                   H2O-512-1.ener
 MD_PAR| Dump                20                                H2O-512-1.restart

 ROT| Rotational analysis information
 ROT| Principal axes and moments of inertia [a.u.]
 ROT|                           1                   2                   3
 ROT| Eigenvalues      6.12011925703E+09   6.17734003456E+09   6.32378668800E+09
 ROT|      x              0.229702356692      0.883899672739      0.407379670409
 ROT|      y              0.711719446246      0.132949289019     -0.689768016354
 ROT|      z              0.663846561462     -0.448381372362      0.598549820611
 ROT| Number of rotovibrational vectors                                        6

 DOF| Calculation of degrees of freedom
 DOF| Number of atoms                                                       1536
 DOF| Number of intramolecular constraints                                     0
 DOF| Number of intermolecular constraints                                     0
 DOF| Invariants (translations + rotations)                                    3
 DOF| Degrees of freedom                                                    4605

 DOF| Restraints information
 DOF| Number of intramolecular restraints                                      0
 DOF| Number of intermolecular restraints                                      0

 MD_VEL| Velocities initialization
 MD_VEL| Initial temperature [K]                                      300.000000
 MD_VEL| COM velocity             0.0000000000    -0.0000000000     0.0000000000

 Number of electrons:                                                       4096
 Number of occupied orbitals:                                               2048
 Number of molecular orbitals:                                              2048

 Number of orbital functions:                                              20480
 Number of independent orbital functions:                                  20480

 Extrapolation method: initial_guess


 SCF WAVEFUNCTION OPTIMIZATION

  ----------------------------------- OT ---------------------------------------
  Minimizer      : DIIS                : direct inversion
                                         in the iterative subspace
                                         using   7 DIIS vectors
                                         safer DIIS on
  Preconditioner : FULL_KINETIC        : inversion of T + eS
  Precond_solver : DEFAULT
  stepsize       :    0.15000000                  energy_gap     :    0.20000000
  eps_taylor     :   0.10000E-15                  max_taylor     :             4
  ----------------------------------- OT ---------------------------------------

  Step     Update method      Time    Convergence         Total energy    Change
  ------------------------------------------------------------------------------
     1 OT DIIS     0.15E+00   22.5     0.00467324     -8480.4728425690 -8.48E+03
     2 OT DIIS     0.15E+00    5.0     0.00318266     -8587.4488310143 -1.07E+02
     3 OT DIIS     0.15E+00    5.1     0.00347210     -8644.7931966768 -5.73E+01
     4 OT DIIS     0.15E+00    5.1     0.00204380     -8678.2157923836 -3.34E+01
     5 OT DIIS     0.15E+00    5.1     0.00148292     -8717.4624183879 -3.92E+01
     6 OT DIIS     0.15E+00    5.1     0.00119954     -8738.7795043572 -2.13E+01
     7 OT DIIS     0.15E+00    5.1     0.00099038     -8755.0185947300 -1.62E+01
     8 OT DIIS     0.15E+00    5.1     0.00079894     -8767.5347825453 -1.25E+01
     9 OT DIIS     0.15E+00    5.1     0.00061581     -8780.1862563834 -1.27E+01
    10 OT DIIS     0.15E+00    5.1     0.00048147     -8788.6147471043 -8.43E+00
    11 OT DIIS     0.15E+00    5.1     0.00038278     -8794.1215228889 -5.51E+00
    12 OT DIIS     0.15E+00    5.2     0.00031960     -8797.5363589594 -3.41E+00
    13 OT DIIS     0.15E+00    5.1     0.00026435     -8799.9344030908 -2.40E+00
    14 OT DIIS     0.15E+00    5.1     0.00023004     -8801.7089305035 -1.77E+00
    15 OT DIIS     0.15E+00    5.1     0.00019592     -8803.0697888564 -1.36E+00
    16 OT DIIS     0.15E+00    5.1     0.00016642     -8804.2000843412 -1.13E+00
    17 OT DIIS     0.15E+00    5.1     0.00014164     -8805.0506655806 -8.51E-01
    18 OT DIIS     0.15E+00    5.1     0.00012638     -8805.6725421207 -6.22E-01
    19 OT DIIS     0.15E+00    5.1     0.00010717     -8806.2171485646 -5.45E-01
    20 OT DIIS     0.15E+00    5.1     0.00009868     -8806.5290018963 -3.12E-01
    21 OT DIIS     0.15E+00    5.2     0.00008484     -8806.8772741195 -3.48E-01
    22 OT DIIS     0.15E+00    5.1     0.00007717     -8807.0943334427 -2.17E-01
    23 OT DIIS     0.15E+00    5.1     0.00006815     -8807.2974129499 -2.03E-01
    24 OT DIIS     0.15E+00    5.1     0.00006019     -8807.4529078233 -1.55E-01
    25 OT DIIS     0.15E+00    5.1     0.00005010     -8807.5989834234 -1.46E-01
    26 OT DIIS     0.15E+00    5.1     0.00004000     -8807.6989662228 -1.00E-01
    27 OT DIIS     0.15E+00    5.1     0.00003462     -8807.7827122402 -8.37E-02
    28 OT DIIS     0.15E+00    5.1     0.00003071     -8807.7824932500  2.19E-04
    29 OT DIIS     0.15E+00    5.1     0.00002690     -8807.8200993195 -3.76E-02
    30 OT DIIS     0.15E+00    5.1     0.00002500     -8807.8399634017 -1.99E-02
    31 OT DIIS     0.15E+00    5.1     0.00002395     -8807.8566460922 -1.67E-02
    32 OT DIIS     0.15E+00    5.1     0.00002328     -8807.8682689643 -1.16E-02
    33 OT DIIS     0.15E+00    5.1     0.00002304     -8807.8827275965 -1.45E-02
    34 OT DIIS     0.15E+00    5.1     0.00002300     -8807.8854890297 -2.76E-03
    35 OT SD       0.15E+00    5.2     0.00002301     -8807.8907467596 -5.26E-03
    36 OT SD       0.15E+00    5.1     0.00002308     -8807.8940817096 -3.33E-03
    37 OT SD       0.15E+00    5.1     0.00002318     -8807.8974407043 -3.36E-03
    38 OT SD       0.15E+00    5.1     0.00002329     -8807.9008284718 -3.39E-03
    39 OT SD       0.15E+00    5.1     0.00002341     -8807.9042491083 -3.42E-03
    40 OT SD       0.15E+00    5.1     0.00002354     -8807.9077063659 -3.46E-03
    41 OT SD       0.15E+00    5.1     0.00002369     -8807.9112037365 -3.50E-03
    42 OT SD       0.15E+00    5.1     0.00002384     -8807.9147444866 -3.54E-03
    43 OT SD       0.15E+00    5.2     0.00002400     -8807.9183316716 -3.59E-03
    44 OT SD       0.15E+00    5.1     0.00002417     -8807.9219681410 -3.64E-03
    45 OT DIIS     0.15E+00    5.1     0.00002435     -8807.9256565391 -3.69E-03
    46 OT DIIS     0.15E+00    5.1     0.00004993     -8807.9143679386  1.13E-02
    47 OT SD       0.15E+00    5.1     0.00005132     -8807.9153296588 -9.62E-04
    48 OT SD       0.15E+00    5.2     0.00004042     -8807.9298201161 -1.45E-02
    49 OT SD       0.15E+00    5.1     0.00003578     -8807.9394206906 -9.60E-03
    50 OT SD       0.15E+00    5.1     0.00003351     -8807.9471784302 -7.76E-03

  Leaving inner SCF loop after reaching    50 steps.


  Electronic density on regular grids:      -4096.0000075477       -0.0000075477
  Core density on regular grids:             4095.9999999927       -0.0000000073
  Total charge density on r-space grids:       -0.0000075549
  Total charge density g-space grids:          -0.0000075549

  Overlap energy of the core charge distribution:               0.00004500798551
  Self energy of the core charge distribution:             -22442.43995950839599
  Core Hamiltonian energy:                                   6603.79209809357417
  Hartree energy:                                            9161.23332157429286
  Exchange-correlation energy:                              -2130.53268359767981

  Total energy:                                             -8807.94717843022227

 *** WARNING in qs_scf.F:576 :: SCF run NOT converged ***


 ENERGY| Total FORCE_EVAL ( QS ) energy [a.u.]:            -8807.954100911745627

 MD_INI| MD initialization
 MD_INI| Potential energy [hartree]                          -0.880795410091E+04
 MD_INI| Kinetic energy [hartree]                             0.218747769838E+01
 MD_INI| Temperature [K]                                              300.000000
 MD_INI| Cell volume [bohr^3]                                 1.037187315243E+05
 MD_INI| Cell volume [ang^3]                                  1.536953010365E+04
 MD_INI| Cell lengths [bohr]      4.69842608E+01  4.69842608E+01  4.69842608E+01
 MD_INI| Cell lengths [ang]       2.48630000E+01  2.48630000E+01  2.48630000E+01
 MD_INI| Cell angles [deg]        9.00000000E+01  9.00000000E+01  9.00000000E+01

 Number of electrons:                                                       4096
 Number of occupied orbitals:                                               2048
 Number of molecular orbitals:                                              2048

 Number of orbital functions:                                              20480
 Number of independent orbital functions:                                  20480

 Extrapolation method: PS Nth order
 Extrapolation order:  0


 SCF WAVEFUNCTION OPTIMIZATION

  ----------------------------------- OT ---------------------------------------
  Minimizer      : DIIS                : direct inversion
                                         in the iterative subspace
                                         using   7 DIIS vectors
                                         safer DIIS on
  Preconditioner : FULL_KINETIC        : inversion of T + eS
  Precond_solver : DEFAULT
  stepsize       :    0.15000000                  energy_gap     :    0.20000000
  eps_taylor     :   0.10000E-15                  max_taylor     :             4
  ----------------------------------- OT ---------------------------------------

  Step     Update method      Time    Convergence         Total energy    Change
  ------------------------------------------------------------------------------
     1 OT DIIS     0.15E+00   22.1     0.00010166     -8807.9561395672 -8.81E+03
     2 OT DIIS     0.15E+00    4.7     0.00007402     -8808.0108863378 -5.47E-02
     3 OT DIIS     0.15E+00    4.6     0.00005500     -8808.0663414038 -5.55E-02
     4 OT DIIS     0.15E+00    4.7     0.00004940     -8808.1038691010 -3.75E-02
     5 OT DIIS     0.15E+00    5.1     0.00004593     -8808.1470455383 -4.32E-02
     6 OT DIIS     0.15E+00    5.2     0.00004342     -8808.1897729573 -4.27E-02
     7 OT DIIS     0.15E+00    5.2     0.00003882     -8808.2510669329 -6.13E-02
     8 OT DIIS     0.15E+00    5.1     0.00002787     -8808.3297217981 -7.87E-02
     9 OT DIIS     0.15E+00    5.1     0.00001996     -8808.3595984640 -2.99E-02
    10 OT DIIS     0.15E+00    5.1     0.00001269     -8808.3787555799 -1.92E-02
    11 OT DIIS     0.15E+00    5.1     0.00001013     -8808.3794580690 -7.02E-04
    12 OT DIIS     0.15E+00    5.1     0.00000697     -8808.3828434494 -3.39E-03

  *** SCF run converged in    12 steps ***


  Electronic density on regular grids:      -4096.0000079115       -0.0000079115
  Core density on regular grids:             4095.9999999916       -0.0000000084
  Total charge density on r-space grids:       -0.0000079199
  Total charge density g-space grids:          -0.0000079199

  Overlap energy of the core charge distribution:               0.00004378148210
  Self energy of the core charge distribution:             -22442.43995950839599
  Core Hamiltonian energy:                                   6601.18909604282271
  Hartree energy:                                            9162.93676093431895
  Exchange-correlation energy:                              -2130.06878469964067

  Total energy:                                             -8808.38284344941349

 ENERGY| Total FORCE_EVAL ( QS ) energy [a.u.]:            -8808.383524341847078

 MD| ***************************************************************************
 MD| Step number                                                               1
 MD| Time [fs]                                                          0.500000
 MD| Conserved quantity [hartree]                            -0.880615760613E+04
 MD| ---------------------------------------------------------------------------
 MD|                                          Instantaneous             Averages
 MD| CPU time per MD step [s]                    365.257169           365.257169
 MD| Energy drift per atom [K]          -0.803792262208E+02   0.000000000000E+00
 MD| Potential energy [hartree]         -0.880838352434E+04  -0.880838352434E+04
 MD| Kinetic energy [hartree]            0.222591821615E+01   0.222591821615E+01
 MD| Temperature [K]                             305.271896           305.271896
 MD| ***************************************************************************

 Number of electrons:                                                       4096
 Number of occupied orbitals:                                               2048
 Number of molecular orbitals:                                              2048

 Number of orbital functions:                                              20480
 Number of independent orbital functions:                                  20480

 Extrapolation method: PS Nth order
 Extrapolation order:  1


 SCF WAVEFUNCTION OPTIMIZATION

  ----------------------------------- OT ---------------------------------------
  Minimizer      : DIIS                : direct inversion
                                         in the iterative subspace
                                         using   7 DIIS vectors
                                         safer DIIS on
  Preconditioner : FULL_KINETIC        : inversion of T + eS
  Precond_solver : DEFAULT
  stepsize       :    0.15000000                  energy_gap     :    0.20000000
  eps_taylor     :   0.10000E-15                  max_taylor     :             4
  ----------------------------------- OT ---------------------------------------

  Step     Update method      Time    Convergence         Total energy    Change
  ------------------------------------------------------------------------------
     1 OT DIIS     0.15E+00   22.5     0.00008002     -8808.4312029726 -8.81E+03
     2 OT DIIS     0.15E+00    4.7     0.00005273     -8808.4636500318 -3.24E-02
     3 OT DIIS     0.15E+00    4.6     0.00003323     -8808.4885826637 -2.49E-02
     4 OT DIIS     0.15E+00    4.6     0.00002253     -8808.5028969855 -1.43E-02
     5 OT DIIS     0.15E+00    4.6     0.00001408     -8808.5119025120 -9.01E-03
     6 OT DIIS     0.15E+00    4.7     0.00000838     -8808.5159083796 -4.01E-03

  *** SCF run converged in     6 steps ***


  Electronic density on regular grids:      -4096.0000084159       -0.0000084159
  Core density on regular grids:             4095.9999999941       -0.0000000059
  Total charge density on r-space grids:       -0.0000084218
  Total charge density g-space grids:          -0.0000084218

  Overlap energy of the core charge distribution:               0.00003949016435
  Self energy of the core charge distribution:             -22442.43995950839599
  Core Hamiltonian energy:                                   6592.75620319929294
  Hartree energy:                                            9168.97951492165521
  Exchange-correlation energy:                              -2127.81170648232273

  Total energy:                                             -8808.51590837960612

 ENERGY| Total FORCE_EVAL ( QS ) energy [a.u.]:            -8808.517221991882252

 MD| ***************************************************************************
 MD| Step number                                                               2
 MD| Time [fs]                                                          1.000000
 MD| Conserved quantity [hartree]                            -0.880616179162E+04
 MD| ---------------------------------------------------------------------------
 MD|                                          Instantaneous             Averages
 MD| CPU time per MD step [s]                     52.927576           209.092372
 MD| Energy drift per atom [K]          -0.812396904301E+02  -0.406198452150E+02
 MD| Potential energy [hartree]         -0.880851722199E+04  -0.880845037317E+04
 MD| Kinetic energy [hartree]            0.235543037177E+01   0.229067429396E+01
 MD| Temperature [K]                             323.033744           314.152820
 MD| ***************************************************************************

 Number of electrons:                                                       4096
 Number of occupied orbitals:                                               2048
 Number of molecular orbitals:                                              2048

 Number of orbital functions:                                              20480
 Number of independent orbital functions:                                  20480

 Extrapolation method: PS Nth order
 Extrapolation order:  2


 SCF WAVEFUNCTION OPTIMIZATION

  ----------------------------------- OT ---------------------------------------
  Minimizer      : DIIS                : direct inversion
                                         in the iterative subspace
                                         using   7 DIIS vectors
                                         safer DIIS on
  Preconditioner : FULL_KINETIC        : inversion of T + eS
  Precond_solver : DEFAULT
  stepsize       :    0.15000000                  energy_gap     :    0.20000000
  eps_taylor     :   0.10000E-15                  max_taylor     :             4
  ----------------------------------- OT ---------------------------------------

  Step     Update method      Time    Convergence         Total energy    Change
  ------------------------------------------------------------------------------
     1 OT DIIS     0.15E+00   23.1     0.00008952     -8808.3724673413 -8.81E+03
     2 OT DIIS     0.15E+00    4.6     0.00007401     -8808.4178132966 -4.53E-02
     3 OT DIIS     0.15E+00    4.6     0.00005865     -8808.4861095563 -6.83E-02
     4 OT DIIS     0.15E+00    4.6     0.00004975     -8808.5434242590 -5.73E-02
     5 OT DIIS     0.15E+00    4.7     0.00004003     -8808.6033060941 -5.99E-02
     6 OT DIIS     0.15E+00    4.6     0.00002838     -8808.6545304258 -5.12E-02
     7 OT DIIS     0.15E+00    4.7     0.00001857     -8808.6821215467 -2.76E-02
     8 OT DIIS     0.15E+00    4.7     0.00001254     -8808.6922110982 -1.01E-02
     9 OT DIIS     0.15E+00    4.7     0.00000895     -8808.6960575711 -3.85E-03

  *** SCF run converged in     9 steps ***


  Electronic density on regular grids:      -4096.0011138984       -0.0011138984
  Core density on regular grids:             4095.9999999985       -0.0000000015
  Total charge density on r-space grids:       -0.0011138999
  Total charge density g-space grids:          -0.0011138999

  Overlap energy of the core charge distribution:               0.00003222774954
  Self energy of the core charge distribution:             -22442.43995950839599
  Core Hamiltonian energy:                                   6579.97473903858918
  Hartree energy:                                            9178.11029466358013
  Exchange-correlation energy:                              -2124.34116399258255

  Total energy:                                             -8808.69605757106183

 ENERGY| Total FORCE_EVAL ( QS ) energy [a.u.]:            -8808.697941404534504

 MD| ***************************************************************************
 MD| Step number                                                               3
 MD| Time [fs]                                                          1.500000
 MD| Conserved quantity [hartree]                            -0.880616496965E+04
 MD| ---------------------------------------------------------------------------
 MD|                                          Instantaneous             Averages
 MD| CPU time per MD step [s]                     68.512908           162.232551
 MD| Energy drift per atom [K]          -0.818930367743E+02  -0.543775757348E+02
 MD| Potential energy [hartree]         -0.880869794140E+04  -0.880853289591E+04
 MD| Kinetic energy [hartree]            0.253297175860E+01   0.237144011551E+01
 MD| Temperature [K]                             347.382526           325.229389
 MD| ***************************************************************************

 Number of electrons:                                                       4096
 Number of occupied orbitals:                                               2048
 Number of molecular orbitals:                                              2048

 Number of orbital functions:                                              20480
 Number of independent orbital functions:                                  20480

 Extrapolation method: PS Nth order
 Extrapolation order:  3


 SCF WAVEFUNCTION OPTIMIZATION

  ----------------------------------- OT ---------------------------------------
  Minimizer      : DIIS                : direct inversion
                                         in the iterative subspace
                                         using   7 DIIS vectors
                                         safer DIIS on
  Preconditioner : FULL_KINETIC        : inversion of T + eS
  Precond_solver : DEFAULT
  stepsize       :    0.15000000                  energy_gap     :    0.20000000
  eps_taylor     :   0.10000E-15                  max_taylor     :             4
  ----------------------------------- OT ---------------------------------------

  Step     Update method      Time    Convergence         Total energy    Change
  ------------------------------------------------------------------------------
     1 OT DIIS     0.15E+00   23.7     0.00008333     -8808.7592023633 -8.81E+03
     2 OT DIIS     0.15E+00    4.6     0.00005710     -8808.7950130161 -3.58E-02
     3 OT DIIS     0.15E+00    4.7     0.00003632     -8808.8254675613 -3.05E-02
     4 OT DIIS     0.15E+00    4.6     0.00002282     -8808.8438864215 -1.84E-02
     5 OT DIIS     0.15E+00    4.7     0.00001494     -8808.8522917120 -8.41E-03
     6 OT DIIS     0.15E+00    4.7     0.00000970     -8808.8563436113 -4.05E-03

  *** SCF run converged in     6 steps ***


  Electronic density on regular grids:      -4096.0000086136       -0.0000086136
  Core density on regular grids:             4096.0000000009        0.0000000009
  Total charge density on r-space grids:       -0.0000086127
  Total charge density g-space grids:          -0.0000086127

  Overlap energy of the core charge distribution:               0.00002346658457
  Self energy of the core charge distribution:             -22442.43995950839599
  Core Hamiltonian energy:                                   6564.27234356618283
  Hartree energy:                                            9189.38225125801910
  Exchange-correlation energy:                              -2120.07100239371402

  Total energy:                                             -8808.85634361132179

 ENERGY| Total FORCE_EVAL ( QS ) energy [a.u.]:            -8808.858111002766236

 MD| ***************************************************************************
 MD| Step number                                                               4
 MD| Time [fs]                                                          2.000000
 MD| Conserved quantity [hartree]                            -0.880616977545E+04
 MD| ---------------------------------------------------------------------------
 MD|                                          Instantaneous             Averages
 MD| CPU time per MD step [s]                     56.026288           135.680985
 MD| Energy drift per atom [K]          -0.828810267894E+02  -0.615034384984E+02
 MD| Potential energy [hartree]         -0.880885811100E+04  -0.880861419969E+04
 MD| Kinetic energy [hartree]            0.268833554778E+01   0.245066397358E+01
 MD| Temperature [K]                             368.689777           336.094486
 MD| ***************************************************************************

 Number of electrons:                                                       4096
 Number of occupied orbitals:                                               2048
 Number of molecular orbitals:                                              2048

 Number of orbital functions:                                              20480
 Number of independent orbital functions:                                  20480

 Extrapolation method: PS Nth order
 Extrapolation order:  3


 SCF WAVEFUNCTION OPTIMIZATION

  ----------------------------------- OT ---------------------------------------
  Minimizer      : DIIS                : direct inversion
                                         in the iterative subspace
                                         using   7 DIIS vectors
                                         safer DIIS on
  Preconditioner : FULL_KINETIC        : inversion of T + eS
  Precond_solver : DEFAULT
  stepsize       :    0.15000000                  energy_gap     :    0.20000000
  eps_taylor     :   0.10000E-15                  max_taylor     :             4
  ----------------------------------- OT ---------------------------------------

  Step     Update method      Time    Convergence         Total energy    Change
  ------------------------------------------------------------------------------
     1 OT DIIS     0.15E+00   24.2     0.00005373     -8808.8527513265 -8.81E+03
     2 OT DIIS     0.15E+00    4.6     0.00004346     -8808.8690132967 -1.63E-02
     3 OT DIIS     0.15E+00    5.0     0.00002860     -8808.8952695719 -2.63E-02
     4 OT DIIS     0.15E+00    5.2     0.00002078     -8808.9086771916 -1.34E-02
     5 OT DIIS     0.15E+00    5.1     0.00001303     -8808.9186818706 -1.00E-02
     6 OT DIIS     0.15E+00    5.1     0.00000829     -8808.9224464449 -3.76E-03

  *** SCF run converged in     6 steps ***


  Electronic density on regular grids:      -4096.0000071799       -0.0000071799
  Core density on regular grids:             4095.9999999999       -0.0000000001
  Total charge density on r-space grids:       -0.0000071801
  Total charge density g-space grids:          -0.0000071801

  Overlap energy of the core charge distribution:               0.00001548115169
  Self energy of the core charge distribution:             -22442.43995950839599
  Core Hamiltonian energy:                                   6547.40990886656073
  Hartree energy:                                            9201.58652899154549
  Exchange-correlation energy:                              -2115.47894027576285

  Total energy:                                             -8808.92244644489983

 ENERGY| Total FORCE_EVAL ( QS ) energy [a.u.]:            -8808.923944006512102

 MD| ***************************************************************************
 MD| Step number                                                               5
 MD| Time [fs]                                                          2.500000
 MD| Conserved quantity [hartree]                            -0.880617227905E+04
 MD| ---------------------------------------------------------------------------
 MD|                                          Instantaneous             Averages
 MD| CPU time per MD step [s]                     58.375777           120.219944
 MD| Energy drift per atom [K]          -0.833957228231E+02  -0.658818953634E+02
 MD| Potential energy [hartree]         -0.880892394401E+04  -0.880867614855E+04
 MD| Kinetic energy [hartree]            0.275166495248E+01   0.251086416936E+01
 MD| Temperature [K]                             377.375041           344.350597
 MD| ***************************************************************************

 Number of electrons:                                                       4096
 Number of occupied orbitals:                                               2048
 Number of molecular orbitals:                                              2048

 Number of orbital functions:                                              20480
 Number of independent orbital functions:                                  20480

 Extrapolation method: PS Nth order
 Extrapolation order:  3


 SCF WAVEFUNCTION OPTIMIZATION

  ----------------------------------- OT ---------------------------------------
  Minimizer      : DIIS                : direct inversion
                                         in the iterative subspace
                                         using   7 DIIS vectors
                                         safer DIIS on
  Preconditioner : FULL_KINETIC        : inversion of T + eS
  Precond_solver : DEFAULT
  stepsize       :    0.15000000                  energy_gap     :    0.20000000
  eps_taylor     :   0.10000E-15                  max_taylor     :             4
  ----------------------------------- OT ---------------------------------------

  Step     Update method      Time    Convergence         Total energy    Change
  ------------------------------------------------------------------------------
     1 OT DIIS     0.15E+00   24.9     0.00004448     -8808.8156023509 -8.81E+03
     2 OT DIIS     0.15E+00    4.7     0.00003646     -8808.8268356356 -1.12E-02
     3 OT DIIS     0.15E+00    4.7     0.00002086     -8808.8467350583 -1.99E-02
     4 OT DIIS     0.15E+00    4.7     0.00001299     -8808.8539992920 -7.26E-03
     5 OT DIIS     0.15E+00    4.7     0.00000882     -8808.8567245526 -2.73E-03

  *** SCF run converged in     5 steps ***


  Electronic density on regular grids:      -4096.0000062608       -0.0000062608
  Core density on regular grids:             4095.9999999983       -0.0000000017
  Total charge density on r-space grids:       -0.0000062625
  Total charge density g-space grids:          -0.0000062625

  Overlap energy of the core charge distribution:               0.00000971641943
  Self energy of the core charge distribution:             -22442.43995950839599
  Core Hamiltonian energy:                                   6531.17358132040226
  Hartree energy:                                            9213.44085866006935
  Exchange-correlation energy:                              -2111.03121474105319

  Total energy:                                             -8808.85672455255735

 ENERGY| Total FORCE_EVAL ( QS ) energy [a.u.]:            -8808.858095810512168

 MD| ***************************************************************************
 MD| Step number                                                               6
 MD| Time [fs]                                                          3.000000
 MD| Conserved quantity [hartree]                            -0.880617008907E+04
 MD| ---------------------------------------------------------------------------
 MD|                                          Instantaneous             Averages
 MD| CPU time per MD step [s]                     52.595359           108.949180
 MD| Energy drift per atom [K]          -0.829455008451E+02  -0.687258296103E+02
 MD| Potential energy [hartree]         -0.880885809581E+04  -0.880870647309E+04
 MD| Kinetic energy [hartree]            0.268800673899E+01   0.254038793096E+01
 MD| Temperature [K]                             368.644683           348.399611
 MD| ***************************************************************************

 Number of electrons:                                                       4096
 Number of occupied orbitals:                                               2048
 Number of molecular orbitals:                                              2048

 Number of orbital functions:                                              20480
 Number of independent orbital functions:                                  20480

 Extrapolation method: PS Nth order
 Extrapolation order:  3


 SCF WAVEFUNCTION OPTIMIZATION

  ----------------------------------- OT ---------------------------------------
  Minimizer      : DIIS                : direct inversion
                                         in the iterative subspace
                                         using   7 DIIS vectors
                                         safer DIIS on
  Preconditioner : FULL_KINETIC        : inversion of T + eS
  Precond_solver : DEFAULT
  stepsize       :    0.15000000                  energy_gap     :    0.20000000
  eps_taylor     :   0.10000E-15                  max_taylor     :             4
  ----------------------------------- OT ---------------------------------------

  Step     Update method      Time    Convergence         Total energy    Change
  ------------------------------------------------------------------------------
     1 OT DIIS     0.15E+00   25.3     0.00004512     -8808.6392799279 -8.81E+03
     2 OT DIIS     0.15E+00    4.7     0.00003696     -8808.6508421152 -1.16E-02
     3 OT DIIS     0.15E+00    4.7     0.00002008     -8808.6712624133 -2.04E-02
     4 OT DIIS     0.15E+00    4.7     0.00001294     -8808.6772554130 -5.99E-03
     5 OT DIIS     0.15E+00    4.7     0.00000746     -8808.6802588571 -3.00E-03

  *** SCF run converged in     5 steps ***


  Electronic density on regular grids:      -4096.0000050907       -0.0000050907
  Core density on regular grids:             4095.9999999989       -0.0000000011
  Total charge density on r-space grids:       -0.0000050918
  Total charge density g-space grids:          -0.0000050918

  Overlap energy of the core charge distribution:               0.00000622099161
  Self energy of the core charge distribution:             -22442.43995950839599
  Core Hamiltonian energy:                                   6517.03256417229568
  Hartree energy:                                            9223.86170031449910
  Exchange-correlation energy:                              -2107.13457005651935

  Total energy:                                             -8808.68025885712996

 ENERGY| Total FORCE_EVAL ( QS ) energy [a.u.]:            -8808.681175251302193

 MD| ***************************************************************************
 MD| Step number                                                               7
 MD| Time [fs]                                                          3.500000
 MD| Conserved quantity [hartree]                            -0.880616595995E+04
 MD| ---------------------------------------------------------------------------
 MD|                                          Instantaneous             Averages
 MD| CPU time per MD step [s]                     53.072977           100.966865
 MD| Energy drift per atom [K]          -0.820966261634E+02  -0.706359434036E+02
 MD| Potential energy [hartree]         -0.880868117525E+04  -0.880870285912E+04
 MD| Kinetic energy [hartree]            0.251521530009E+01   0.253679184084E+01
 MD| Temperature [K]                             344.947329           347.906428
 MD| ***************************************************************************

 Number of electrons:                                                       4096
 Number of occupied orbitals:                                               2048
 Number of molecular orbitals:                                              2048

 Number of orbital functions:                                              20480
 Number of independent orbital functions:                                  20480

 Extrapolation method: PS Nth order
 Extrapolation order:  3


 SCF WAVEFUNCTION OPTIMIZATION

  ----------------------------------- OT ---------------------------------------
  Minimizer      : DIIS                : direct inversion
                                         in the iterative subspace
                                         using   7 DIIS vectors
                                         safer DIIS on
  Preconditioner : FULL_KINETIC        : inversion of T + eS
  Precond_solver : DEFAULT
  stepsize       :    0.15000000                  energy_gap     :    0.20000000
  eps_taylor     :   0.10000E-15                  max_taylor     :             4
  ----------------------------------- OT ---------------------------------------

  Step     Update method      Time    Convergence         Total energy    Change
  ------------------------------------------------------------------------------
     1 OT DIIS     0.15E+00   25.9     0.00004593     -8808.4091601462 -8.81E+03
     2 OT DIIS     0.15E+00    4.7     0.00003735     -8808.4210854434 -1.19E-02
     3 OT DIIS     0.15E+00    4.7     0.00002083     -8808.4410794739 -2.00E-02
     4 OT DIIS     0.15E+00    4.7     0.00001349     -8808.4480521676 -6.97E-03
     5 OT DIIS     0.15E+00    4.7     0.00001067     -8808.4504762149 -2.42E-03
     6 OT DIIS     0.15E+00    4.7     0.00000729     -8808.4530515944 -2.58E-03

  *** SCF run converged in     6 steps ***


  Electronic density on regular grids:      -4096.0000038375       -0.0000038375
  Core density on regular grids:             4096.0000000008        0.0000000008
  Total charge density on r-space grids:       -0.0000038367
  Total charge density g-space grids:          -0.0000038367

  Overlap energy of the core charge distribution:               0.00000436189377
  Self energy of the core charge distribution:             -22442.43995950839599
  Core Hamiltonian energy:                                   6506.06613957947138
  Hartree energy:                                            9232.01068810915604
  Exchange-correlation energy:                              -2104.08992413652595

  Total energy:                                             -8808.45305159440250

 ENERGY| Total FORCE_EVAL ( QS ) energy [a.u.]:            -8808.454588529042667

 MD| ***************************************************************************
 MD| Step number                                                               8
 MD| Time [fs]                                                          4.000000
 MD| Conserved quantity [hartree]                            -0.880616114390E+04
 MD| ---------------------------------------------------------------------------
 MD|                                          Instantaneous             Averages
 MD| CPU time per MD step [s]                     58.385285            95.644168
 MD| Energy drift per atom [K]          -0.811065305081E+02  -0.719447667917E+02
 MD| Potential energy [hartree]         -0.880845458853E+04  -0.880867182529E+04
 MD| Kinetic energy [hartree]            0.229344462920E+01   0.250637343938E+01
 MD| Temperature [K]                             314.532756           343.734719
 MD| ***************************************************************************

 Number of electrons:                                                       4096
 Number of occupied orbitals:                                               2048
 Number of molecular orbitals:                                              2048

 Number of orbital functions:                                              20480
 Number of independent orbital functions:                                  20480

 Extrapolation method: PS Nth order
 Extrapolation order:  3


 SCF WAVEFUNCTION OPTIMIZATION

  ----------------------------------- OT ---------------------------------------
  Minimizer      : DIIS                : direct inversion
                                         in the iterative subspace
                                         using   7 DIIS vectors
                                         safer DIIS on
  Preconditioner : FULL_KINETIC        : inversion of T + eS
  Precond_solver : DEFAULT
  stepsize       :    0.15000000                  energy_gap     :    0.20000000
  eps_taylor     :   0.10000E-15                  max_taylor     :             4
  ----------------------------------- OT ---------------------------------------

  Step     Update method      Time    Convergence         Total energy    Change
  ------------------------------------------------------------------------------
     1 OT DIIS     0.15E+00   26.5     0.00004004     -8808.2155154285 -8.81E+03
     2 OT DIIS     0.15E+00    4.7     0.00003370     -8808.2247629638 -9.25E-03
     3 OT DIIS     0.15E+00    4.7     0.00001702     -8808.2451964516 -2.04E-02
     4 OT DIIS     0.15E+00    4.7     0.00001233     -8808.2496314942 -4.44E-03
     5 OT DIIS     0.15E+00    4.7     0.00000881     -8808.2522863274 -2.65E-03

  *** SCF run converged in     5 steps ***


  Electronic density on regular grids:      -4096.0000022185       -0.0000022185
  Core density on regular grids:             4096.0000000016        0.0000000016
  Total charge density on r-space grids:       -0.0000022168
  Total charge density g-space grids:          -0.0000022168

  Overlap energy of the core charge distribution:               0.00000353692335
  Self energy of the core charge distribution:             -22442.43995950839599
  Core Hamiltonian energy:                                   6498.76028645371571
  Hartree energy:                                            9237.49678647052860
  Exchange-correlation energy:                              -2102.06940328016481

  Total energy:                                             -8808.25228632739527

 ENERGY| Total FORCE_EVAL ( QS ) energy [a.u.]:            -8808.253911046167559

 MD| ***************************************************************************
 MD| Step number                                                               9
 MD| Time [fs]                                                          4.500000
 MD| Conserved quantity [hartree]                            -0.880615637227E+04
 MD| ---------------------------------------------------------------------------
 MD|                                          Instantaneous             Averages
 MD| CPU time per MD step [s]                     54.358986            91.056925
 MD| Energy drift per atom [K]          -0.801255681496E+02  -0.728537447203E+02
 MD| Potential energy [hartree]         -0.880825391105E+04  -0.880862539038E+04
 MD| Kinetic energy [hartree]            0.209753877126E+01   0.246094736515E+01
 MD| Temperature [K]                             287.665393           337.504794
 MD| ***************************************************************************

 Number of electrons:                                                       4096
 Number of occupied orbitals:                                               2048
 Number of molecular orbitals:                                              2048

 Number of orbital functions:                                              20480
 Number of independent orbital functions:                                  20480

 Extrapolation method: PS Nth order
 Extrapolation order:  3


 SCF WAVEFUNCTION OPTIMIZATION

  ----------------------------------- OT ---------------------------------------
  Minimizer      : DIIS                : direct inversion
                                         in the iterative subspace
                                         using   7 DIIS vectors
                                         safer DIIS on
  Preconditioner : FULL_KINETIC        : inversion of T + eS
  Precond_solver : DEFAULT
  stepsize       :    0.15000000                  energy_gap     :    0.20000000
  eps_taylor     :   0.10000E-15                  max_taylor     :             4
  ----------------------------------- OT ---------------------------------------

  Step     Update method      Time    Convergence         Total energy    Change
  ------------------------------------------------------------------------------
     1 OT DIIS     0.15E+00   27.1     0.00003973     -8808.1045930137 -8.81E+03
     2 OT DIIS     0.15E+00    4.6     0.00003309     -8808.1136140814 -9.02E-03
     3 OT DIIS     0.15E+00    4.7     0.00002027     -8808.1300306373 -1.64E-02
     4 OT DIIS     0.15E+00    4.7     0.00001247     -8808.1381366522 -8.11E-03
     5 OT DIIS     0.15E+00    4.7     0.00001006     -8808.1403063698 -2.17E-03
     6 OT DIIS     0.15E+00    4.7     0.00000707     -8808.1425946912 -2.29E-03

  *** SCF run converged in     6 steps ***


  Electronic density on regular grids:      -4096.0000006689       -0.0000006689
  Core density on regular grids:             4096.0000000008        0.0000000008
  Total charge density on r-space grids:       -0.0000006682
  Total charge density g-space grids:          -0.0000006682

  Overlap energy of the core charge distribution:               0.00000340786908
  Self energy of the core charge distribution:             -22442.43995950839599
  Core Hamiltonian energy:                                   6495.52308239958893
  Hartree energy:                                            9239.94880978137007
  Exchange-correlation energy:                              -2101.17453077167374

  Total energy:                                             -8808.14259469124227

 ENERGY| Total FORCE_EVAL ( QS ) energy [a.u.]:            -8808.143966054834891

 MD| ***************************************************************************
 MD| Step number                                                              10
 MD| Time [fs]                                                          5.000000
 MD| Conserved quantity [hartree]                            -0.880615520870E+04
 MD| ---------------------------------------------------------------------------
 MD|                                          Instantaneous             Averages
 MD| CPU time per MD step [s]                     59.430506            87.894283
 MD| Energy drift per atom [K]          -0.798863573415E+02  -0.735570059824E+02
 MD| Potential energy [hartree]         -0.880814396605E+04  -0.880857724794E+04
 MD| Kinetic energy [hartree]            0.198875735592E+01   0.241372836422E+01
 MD| Temperature [K]                             272.746647           331.028979
 MD| ***************************************************************************

 -------------------------------------------------------------------------------
 -                                                                             -
 -                                DBCSR STATISTICS                             -
 -                                                                             -
 -------------------------------------------------------------------------------
 COUNTER                                    TOTAL       BLAS       SMM       ACC
 flops     9 x    32 x    32          13287555072     100.0%      0.0%      0.0%
 flops    22 x    32 x    32          16240345088     100.0%      0.0%      0.0%
 flops    32 x   512 x   512         223338299392     100.0%      0.0%      0.0%
 flops    32 x   512 x  5120        1216012615680     100.0%      0.0%      0.0%
 flops    96 x   512 x   512        2010044694528     100.0%      0.0%      0.0%
 flops     9 x     9 x   512        5648350040064     100.0%      0.0%      0.0%
 flops     9 x    22 x   512        7855827369984     100.0%      0.0%      0.0%
 flops    22 x     9 x   512        7866447519744     100.0%      0.0%      0.0%
 flops   680 x   512 x   512        9548920258560     100.0%      0.0%      0.0%
 flops    96 x   512 x  5120       10944113541120     100.0%      0.0%      0.0%
 flops    22 x    22 x   512       11004752822272     100.0%      0.0%      0.0%
 flops    64 x   512 x   512       12060268167168     100.0%      0.0%      0.0%
 flops   658 x   512 x   512       12319979470848     100.0%      0.0%      0.0%
 flops   680 x   512 x  5120       21733205606400     100.0%      0.0%      0.0%
 flops   693 x   512 x   512       22706770673664     100.0%      0.0%      0.0%
 flops     9 x    32 x     9       23722505551872     100.0%      0.0%      0.0%
 flops   649 x   512 x   512       27340805505024     100.0%      0.0%      0.0%
 flops   658 x   512 x  5120       28040096645120     100.0%      0.0%      0.0%
 flops    22 x    32 x     9       33153656684544     100.0%      0.0%      0.0%
 flops     9 x    32 x    22       33153656684544     100.0%      0.0%      0.0%
 flops    22 x    32 x    22       46115724689408     100.0%      0.0%      0.0%
 flops   693 x   512 x  5120       51680284508160     100.0%      0.0%      0.0%
 flops   649 x   512 x  5120       62227281346560     100.0%      0.0%      0.0%
 flops    64 x   512 x  5120       65664681246720     100.0%      0.0%      0.0%
 flops inhomo. stacks              95640499519488     100.0%      0.0%      0.0%
 flops total                       591.906751E+12     100.0%      0.0%      0.0%
 flops max/rank                     74.129605E+12     100.0%      0.0%      0.0%
 matmuls inhomo. stacks                     98640     100.0%      0.0%      0.0%
 matmuls total                        11467358256     100.0%      0.0%      0.0%
 number of processed stacks              12940168     100.0%      0.0%      0.0%
 average stack size                                   886.2       0.0       0.0
 marketing flops                     1.146962E+15
 -------------------------------------------------------------------------------
 # multiplications                           2421
 max memory usage/rank               5.602533E+09
 # max total images/rank                        2
 # max 3D layers                                1
 # MPI messages exchanged                   96840
 MPI messages size (bytes):
  total size                         3.712814E+12
  min size                           0.000000E+00
  max size                         419.430400E+06
  average size                      38.339668E+06
 MPI breakdown and total messages size (bytes):
             size <=      128                 572                        0
       128 < size <=     8192                   0                        0
      8192 < size <=    32768                   0                        0
     32768 < size <=   131072                  44                  5767168
    131072 < size <=  4194304               42208             130392522752
   4194304 < size <= 16777216                   0                        0
  16777216 < size                           54016            3582410106272
 -------------------------------------------------------------------------------

 *** WARNING in dbcsr_mm.F:294 :: Using a non-square number of MPI ranks ***
 *** might lead to poor performance. Used ranks: 8 Suggested: 9 16       ***

 -------------------------------------------------------------------------------
 -                                                                             -
 -                      DBCSR MESSAGE PASSING PERFORMANCE                      -
 -                                                                             -
 -------------------------------------------------------------------------------
 ROUTINE             CALLS      AVE VOLUME [Bytes]
 MP_Bcast               25                     12.
 MP_Allreduce        12929                     68.
 MP_Alltoall          9195                6148486.
 MP_ISend            36470               14053822.
 MP_IRecv            36470               14052551.
 -------------------------------------------------------------------------------

 -------------------------------------------------------------------------------
 -                                                                             -
 -                                GRID STATISTICS                              -
 -                                                                             -
 -------------------------------------------------------------------------------
 LP    KERNEL             BACKEND                              COUNT     PERCENT
 1     collocate ortho    REF                              135745287      21.34%
 1     integrate ortho    REF                              130493474      20.52%
 2     integrate ortho    REF                               88995617      13.99%
 2     collocate ortho    REF                               84560452      13.30%
 0     collocate ortho    REF                               75171684      11.82%
 0     integrate ortho    REF                               68664059      10.80%
 3     integrate ortho    REF                               26282166       4.13%
 3     collocate ortho    REF                               20755016       3.26%
 4     integrate ortho    REF                                3293394       0.52%
 4     collocate ortho    REF                                1638196       0.26%
 5     integrate ortho    REF                                 141925       0.02%
 0     collocate general  REF                                 135168       0.02%
 1     integrate general  REF                                 135168       0.02%
 -------------------------------------------------------------------------------

 MEMORY| Estimated peak process memory [MiB]                                4484

 -------------------------------------------------------------------------------
 -                                                                             -
 -                         MESSAGE PASSING PERFORMANCE                         -
 -                                                                             -
 -------------------------------------------------------------------------------

 ROUTINE             CALLS      AVE VOLUME [Bytes]
 MP_Group                4
 MP_Bcast             3883                  62779.
 MP_Allreduce        10646                   3041.
 MP_Sync                66
 MP_Alltoall          1700               70314243.
 MP_ISendRecv         3556                 470448.
 MP_Wait             11506
 MP_ISend             6360                1934723.
 MP_IRecv             6360                1934723.
 -------------------------------------------------------------------------------


 -------------------------------------------------------------------------------
 -                                                                             -
 -                           R E F E R E N C E S                               -
 -                                                                             -
 -------------------------------------------------------------------------------
 
 CP2K version 8.2, the CP2K developers group (2021).
 CP2K is freely available from https://www.cp2k.org/ .

 Kuehne,Thomas D.; Iannuzzi,Marcella; Del Ben,Mauro;
 Rybkin,Vladimir V.; Seewald,Patrick; Stein,Frederick; Laino,Teodoro;
 Khaliullin,Rustam Z.; Schuett,Ole; Schiffmann,Florian; Golze,Dorothea;
 Wilhelm,Jan; Chulkov,Sergey; Bani-Hashemian,Mohammad Hossein;
 Weber,Valery; Borstnik,Urban; Taillefumier,Mathieu;
 Jakobovits,Alice Shoshana; Lazzaro,Alfio; Pabst,Hans; Mueller,Tiziano;
 Schade,Robert; Guidon,Manuel; Andermatt,Samuel; Holmberg,Nico;
 Schenter,Gregory K.; Hehn,Anna; Bussy,Augustin; Belleflamme,Fabian;
 Tabacchi,Gloria; Gloess,Andreas; Lass,Michael; Bethune,Iain;
 Mundy,Christopher J.; Plessl,Christian; Watkins,Matt;
 VandeVondele,Joost; Krack,Matthias; Hutter,Juerg. 
 The Journal of Chemical Physics, 152 (19), (2020). 
 CP2K: An electronic structure and molecular dynamics software package -
 Quickstep: Efficient and accurate electronic structure calculations.
 https://doi.org/10.1063/5.0007045

 Schuett, Ole; Messmer, Peter; Hutter, Juerg; VandeVondele, Joost. 
 Electronic Structure Calculations on Graphics Processing Units, John
 Wiley & Sons, Ltd, 173-190 (2016). 
 GPU-Accelerated Sparse Matrix-Matrix Multiplication for
 Linear Scaling Density Functional Theory.
 https://doi.org/10.1002/9781118670712.ch8

 Borstnik, U; VandeVondele, J; Weber, V; Hutter, J. 
 PARALLEL COMPUTING, 40 (5-6), 47-58 (2014). 
 Sparse matrix multiplication: The distributed block-compressed sparse
 row library.
 https://doi.org/10.1016/j.parco.2014.03.012

 Hutter, J; Iannuzzi, M; Schiffmann, F; VandeVondele, J. 
 WIREs Comput Mol Sci., 4 (1), 15-25 (2014). 
 CP2K: atomistic simulations of condensed matter systems.
 https://doi.org/10.1002/wcms.1159

 Marek, A; Blum, V; Johanni, R; Havu, V; Lang, B; Auckenthaler, T;
 Heinecke, A; Bungartz, H; Lederer, H. 
 Journal of Physics: Condensed Matter, 26 (21), (2014). 
 The ELPA library: scalable parallel eigenvalue solutions for
 electronic structure
 theory and computational science.
 https://doi.org/10.1088/0953-8984/26/21/213201

 Krack, M. 
 THEORETICAL CHEMISTRY ACCOUNTS, 114 (1-3), 145-152 (2005). 
 Pseudopotentials for H to Kr optimized for gradient-corrected
 exchange-correlation functionals.
 https://doi.org/10.1007/s00214-005-0655-y

 VandeVondele, J; Krack, M; Mohamed, F; Parrinello, M; Chassaing, T;
 Hutter, J. COMPUTER PHYSICS COMMUNICATIONS, 167 (2), 103-128 (2005). 
 QUICKSTEP: Fast and accurate density functional calculations using a
 mixed Gaussian and plane waves approach.
 https://doi.org/10.1016/j.cpc.2004.12.014

 Frigo, M; Johnson, SG. 
 PROCEEDINGS OF THE IEEE, 93 (2), 216-231 (2005). 
 The design and implementation of FFTW3.
 https://doi.org/10.1109/JPROC.2004.840301

 VandeVondele, J; Hutter, J. 
 JOURNAL OF CHEMICAL PHYSICS, 118 (10), 4365-4369 (2003). 
 An efficient orbital transformation method for electronic structure
 calculations.
 https://doi.org/10.1063/1.1543154

 Hartwigsen, C; Goedecker, S; Hutter, J. 
 PHYSICAL REVIEW B, 58 (7), 3641-3662 (1998). 
 Relativistic separable dual-space Gaussian pseudopotentials from H to Rn.
 https://doi.org/10.1103/PhysRevB.58.3641

 Lippert, G; Hutter, J; Parrinello, M. 
 MOLECULAR PHYSICS, 92 (3), 477-487 (1997). 
 A hybrid Gaussian and plane wave density functional scheme.
 https://doi.org/10.1080/002689797170220

 Goedecker, S; Teter, M; Hutter, J. 
 PHYSICAL REVIEW B, 54 (3), 1703-1710 (1996). 
 Separable dual-space Gaussian pseudopotentials.
 https://doi.org/10.1103/PhysRevB.54.1703


 -------------------------------------------------------------------------------
 -                                                                             -
 -                                T I M I N G                                  -
 -                                                                             -
 -------------------------------------------------------------------------------
 SUBROUTINE                       CALLS  ASD         SELF TIME        TOTAL TIME
                                MAXIMUM       AVERAGE  MAXIMUM  AVERAGE  MAXIMUM
 CP2K                                 1  1.0    0.021    0.022  879.483  879.483
 qs_mol_dyn_low                       1  2.0    0.003    0.003  878.956  878.976
 qs_forces                           11  3.9    0.003    0.003  878.834  878.834
 qs_energies                         11  4.9    0.001    0.001  860.908  861.030
 scf_env_do_scf                      11  5.9    0.001    0.001  794.104  794.118
 velocity_verlet                     10  3.0    0.001    0.002  596.847  596.859
 scf_env_do_scf_inner_loop          116  6.6    0.004    0.011  565.712  565.714
 dbcsr_multiply_generic            2421 12.5    0.321    0.333  421.219  426.532
 qs_scf_new_mos                     116  7.6    0.001    0.001  392.110  393.214
 qs_scf_loop_do_ot                  116  8.6    0.001    0.001  392.108  393.213
 ot_scf_mini                        116  9.6    0.005    0.005  366.699  368.718
 multiply_cannon                   2421 13.5    0.365    0.386  279.537  285.868
 multiply_cannon_loop              2421 14.5    0.191    0.205  272.417  280.340
 multiply_cannon_multrec           9684 15.5  260.168  266.145  260.232  266.191
 ot_mini                            116 10.6    0.001    0.001  242.386  243.505
 init_scf_loop                       11  6.9    0.001    0.001  227.365  227.377
 prepare_preconditioner              11  7.9    0.000    0.000  209.955  210.158
 make_preconditioner                 11  8.9    0.000    0.000  209.955  210.157
 make_full_inverse_cholesky          11  9.9    0.000    0.001  202.893  203.256
 qs_ot_get_derivative               116 11.6    0.002    0.003  123.522  125.427
 rebuild_ks_matrix                  127  8.3    0.001    0.001  122.237  123.031
 qs_ks_build_kohn_sham_matrix       127  9.3    0.021    0.022  122.236  123.030
 ot_diis_step                       116 11.6    0.008    0.008  117.906  117.907
 qs_ks_update_qs_env                127  7.6    0.002    0.002  112.229  112.934
 apply_preconditioner_dbcsr         127 12.6    0.000    0.000  109.833  112.470
 apply_single                       127 13.6    0.001    0.001  109.832  112.470
 cp_fm_cholesky_invert               11 10.9  111.606  111.719  111.606  111.719
 make_m2s                          4842 13.5    0.156    0.161  107.928  109.645
 qs_rho_update_rho                  127  7.7    0.001    0.001   78.512   79.044
 calculate_rho_elec                 127  8.7    0.954    0.956   78.511   79.043
 make_images                       4842 14.5   16.179   18.314   74.558   77.731
 cp_fm_cholesky_decompose            22 10.9   75.491   76.064   75.491   76.064
 mp_waitall_1                    101986 16.7   36.690   52.961   36.690   52.961
 pw_transfer                       1535 11.6    0.095    0.105   50.439   51.430
 fft_wrap_pw1pw2                   1281 12.7    0.011    0.012   49.900   50.900
 make_images_data                  4842 15.5    0.085    0.093   41.808   49.059
 hybrid_alltoall_any               5007 16.4    7.952   19.517   41.302   48.973
 fft_wrap_pw1pw2_140                519 13.2    1.695    1.756   47.436   48.298
 qs_ot_get_p                        127 10.4    0.001    0.001   45.759   46.914
 init_scf_run                        11  5.9    0.000    0.001   46.737   46.747
 scf_env_initial_rho_setup           11  6.9    0.000    0.001   46.737   46.747
 fft3d_ps                          1281 14.7   29.336   30.473   45.731   46.730
 qs_ot_get_derivative_diag           59 12.2    0.004    0.004   42.486   43.854
 sum_up_and_integrate               127 10.3    0.253    0.261   43.534   43.698
 dbcsr_make_dense_low              8294 15.6    0.105    0.111   40.452   43.488
 integrate_v_rspace                 127 11.3    0.005    0.005   43.281   43.447
 make_dense_data                   8294 16.6   39.200   42.454   40.291   43.329
 wfi_extrapolate                     11  7.9    0.001    0.001   42.276   42.276
 grid_collocate_task_list           127  9.7   40.078   40.682   40.078   40.682
 dbcsr_make_images_dense           4216 14.8    0.054    0.055   32.810   35.692
 qs_ot_get_derivative_taylor         57 13.0    0.003    0.004   31.576   32.145
 calculate_dm_sparse                127  9.5    0.002    0.002   28.574   30.522
 density_rs2pw                      127  9.7    0.005    0.006   29.163   29.672
 qs_ot_get_orbitals                 116 10.6    0.002    0.002   28.779   29.637
 qs_ot_p2m_diag                      62 11.2    1.842    1.869   25.557   25.673
 grid_integrate_task_list           127 12.3   23.515   23.776   23.515   23.776
 cp_dbcsr_sm_fm_multiply             37  9.5    0.002    0.002   22.592   22.632
 dbcsr_complete_redistribute        353 12.4   11.505   11.821   21.619   22.007
 dbcsr_dot_sd                      1303 12.0    8.269    8.678   16.605   21.914
 cp_dbcsr_syevd                      62 12.2    0.007    0.008   20.767   20.787
 mp_sum_d                          4390 12.1   13.282   19.864   13.282   19.864
 cp_fm_diag_elpa                     62 13.2    0.001    0.001   19.805   19.832
 cp_fm_diag_elpa_base                62 14.2   19.123   19.159   19.754   19.757
 -------------------------------------------------------------------------------

 The number of warnings for this run is : 2
 
 -------------------------------------------------------------------------------
  **** **** ******  **  PROGRAM ENDED AT                 2022-01-17 16:42:54.814
 ***** ** ***  *** **   PROGRAM RAN ON                                 nid001698
 **    ****   ******    PROGRAM RAN BY                                    hjudge
 ***** **    ** ** **   PROGRAM PROCESS ID                                 12039
  **** **  *******  **  PROGRAM STOPPED IN /mnt/lustre/a2fs-work2/work/z19/z19/h
                                           judge/CUG/archer2/CPU/CP2K/H2O-512/1N
                                           ODES/128CPN/16THREADS
