 DBCSR| CPU Multiplication driver                                           BLAS
 DBCSR| Multrec recursion limit                                              512
 DBCSR| Multiplication stack size                                           1000
 DBCSR| Maximum elements for images                                    UNLIMITED
 DBCSR| Multiplicative factor virtual images                                   1
 DBCSR| Use multiplication densification                                       T
 DBCSR| Multiplication size stacks                                             3
 DBCSR| Use memory pool for CPU allocation                                     F
 DBCSR| Number of 3D layers                                               SINGLE
 DBCSR| Use MPI memory allocation                                              F
 DBCSR| Use RMA algorithm                                                      F
 DBCSR| Use Communication thread                                               T
 DBCSR| Communication thread load                                             75
 DBCSR| MPI: My node id                                                        0
 DBCSR| MPI: Number of nodes                                                  64
 DBCSR| OMP: Current number of threads                                         4
 DBCSR| OMP: Max number of threads                                             4
 DBCSR| Split modifier for TAS multiplication algorithm                  1.0E+00


  **** **** ******  **  PROGRAM STARTED AT               2022-01-17 15:25:02.630
 ***** ** ***  *** **   PROGRAM STARTED ON                             nid002345
 **    ****   ******    PROGRAM STARTED BY                                hjudge
 ***** **    ** ** **   PROGRAM PROCESS ID                                242756
  **** **  *******  **  PROGRAM STARTED IN /mnt/lustre/a2fs-work2/work/z19/z19/h
                                           judge/CUG/archer2/CPU/CP2K/H2O-512/2N
                                           ODES/128CPN/4THREADS

 CP2K| version string:                                          CP2K version 8.2
 CP2K| source code revision number:                                  git:310b7ab
 CP2K| cp2kflags: omp libint fftw3 libxc elpa parallel mpi3 scalapack plumed2   
 CP2K| is freely available from                            https://www.cp2k.org/
 CP2K| Program compiled at                          Thu Dec  2 10:30:45 GMT 2021
 CP2K| Program compiled on                                                  ln02
 CP2K| Program compiled for                                              ARCHER2
 CP2K| Data directory path         /work/y07/shared/apps/core/cp2k/cp2k-8.2/data
 CP2K| Input file name                                               H2O-512.inp

 GLOBAL| Force Environment number                                              1
 GLOBAL| Basis set file name                                      GTH_BASIS_SETS
 GLOBAL| Potential file name                                           POTENTIAL
 GLOBAL| MM Potential file name                                     MM_POTENTIAL
 GLOBAL| Coordinate file name                                      __STD_INPUT__
 GLOBAL| Method name                                                        CP2K
 GLOBAL| Project name                                                    H2O-512
 GLOBAL| Run type                                                             MD
 GLOBAL| FFT library                                                       FFTW3
 GLOBAL| Diagonalization library                                            ELPA
 GLOBAL| Minimum number of eigenvectors for ELPA usage                        16
 GLOBAL| Orthonormality check for eigenvectors                          DISABLED
 GLOBAL| Matrix multiplication library                                    SCALAP
 GLOBAL| All-to-all communication in single precision                          F
 GLOBAL| FFTs using library dependent lengths                                  F
 GLOBAL| Grid backend                                                       AUTO
 GLOBAL| Global print level                                                  LOW
 GLOBAL| MPI I/O enabled                                                       T
 GLOBAL| Total number of message passing processes                            64
 GLOBAL| Number of threads for this process                                    4
 GLOBAL| This output is from process                                           0
 GLOBAL| CPU model name                          AMD EPYC 7742 64-Core Processor
 GLOBAL| CPUID                                                              1002

 MEMORY| system memory details [Kb]
 MEMORY|                        rank 0           min           max       average
 MEMORY| MemTotal            263528088     263528084     263528088     263528086
 MEMORY| MemFree             249901556     249525344     249901556     249713450
 MEMORY| Buffers                 25512         24792         25512         25152
 MEMORY| Cached                 844516        844516       1333812       1089164
 MEMORY| Slab                  1616860       1593440       1616860       1605150
 MEMORY| SReclaimable           105096        100584        105096        102840
 MEMORY| MemLikelyFree       250876680     250876680     250984532     250930606


 GENERATE|  Preliminary Number of Bonds generated:                             0
 GENERATE|  Achieved consistency in connectivity generation.

 *******************************************************************************
 *******************************************************************************
 **                                                                           **
 **     #####                         ##              ##                      **
 **    ##   ##            ##          ##              ##                      **
 **   ##     ##                       ##            ######                    **
 **   ##     ##  ##   ##  ##   #####  ##  ##   ####   ##    #####    #####    **
 **   ##     ##  ##   ##  ##  ##      ## ##   ##      ##   ##   ##  ##   ##   **
 **   ##  ## ##  ##   ##  ##  ##      ####     ###    ##   ######   ######    **
 **    ##  ###   ##   ##  ##  ##      ## ##      ##   ##   ##       ##        **
 **     #######   #####   ##   #####  ##  ##  ####    ##    #####   ##        **
 **           ##                                                    ##        **
 **                                                                           **
 **                                                ... make the atoms dance   **
 **                                                                           **
 **            Copyright (C) by CP2K developers group (2000-2021)             **
 **                      J. Chem. Phys. 152, 194103 (2020)                    **
 **                                                                           **
 *******************************************************************************


 TOTAL NUMBERS AND MAXIMUM NUMBERS

  Total number of            - Atomic kinds:                                   2
                             - Atoms:                                       1536
                             - Shell sets:                                  3072
                             - Shells:                                      9216
                             - Primitive Cartesian functions:              10752
                             - Cartesian basis functions:                  21504
                             - Spherical basis functions:                  20480

  Maximum angular momentum of- Orbital basis functions:                        2
                             - Local part of the GTH pseudopotential:          2
                             - Non-local part of the GTH pseudopotential:      0


 SCF PARAMETERS         Density guess:                                    ATOMIC
                        --------------------------------------------------------
                        max_scf:                                              50
                        max_scf_history:                                       0
                        max_diis:                                              4
                        --------------------------------------------------------
                        eps_scf:                                        1.00E-05
                        eps_scf_history:                                0.00E+00
                        eps_diis:                                       1.00E-01
                        eps_eigval:                                     1.00E-05
                        --------------------------------------------------------
                        level_shift [a.u.]:                                 0.00
                        --------------------------------------------------------
                        No outer SCF

 MD_PAR| Molecular dynamics protocol (MD input parameters)
 MD_PAR| Ensemble type                                                       NVE
 MD_PAR| Number of time steps                                                 10
 MD_PAR| Time step [fs]                                                 0.500000
 MD_PAR| Temperature [K]                                              300.000000
 MD_PAR| Temperature tolerance [K]                                      0.000000
 MD_PAR| Print MD information every                                    1 step(s)
 MD_PAR| File type   Print frequency [steps]                          File names
 MD_PAR| Coordinates          1                                H2O-512-pos-1.xyz
 MD_PAR| Velocities           1                                H2O-512-vel-1.xyz
 MD_PAR| Energies             1                                   H2O-512-1.ener
 MD_PAR| Dump                20                                H2O-512-1.restart

 ROT| Rotational analysis information
 ROT| Principal axes and moments of inertia [a.u.]
 ROT|                           1                   2                   3
 ROT| Eigenvalues      6.12011925703E+09   6.17734003456E+09   6.32378668800E+09
 ROT|      x              0.229702356692      0.883899672739      0.407379670409
 ROT|      y              0.711719446246      0.132949289019     -0.689768016354
 ROT|      z              0.663846561462     -0.448381372362      0.598549820611
 ROT| Number of rotovibrational vectors                                        6

 DOF| Calculation of degrees of freedom
 DOF| Number of atoms                                                       1536
 DOF| Number of intramolecular constraints                                     0
 DOF| Number of intermolecular constraints                                     0
 DOF| Invariants (translations + rotations)                                    3
 DOF| Degrees of freedom                                                    4605

 DOF| Restraints information
 DOF| Number of intramolecular restraints                                      0
 DOF| Number of intermolecular restraints                                      0

 MD_VEL| Velocities initialization
 MD_VEL| Initial temperature [K]                                      300.000000
 MD_VEL| COM velocity             0.0000000000    -0.0000000000     0.0000000000

 Number of electrons:                                                       4096
 Number of occupied orbitals:                                               2048
 Number of molecular orbitals:                                              2048

 Number of orbital functions:                                              20480
 Number of independent orbital functions:                                  20480

 Extrapolation method: initial_guess


 SCF WAVEFUNCTION OPTIMIZATION

  ----------------------------------- OT ---------------------------------------
  Minimizer      : DIIS                : direct inversion
                                         in the iterative subspace
                                         using   7 DIIS vectors
                                         safer DIIS on
  Preconditioner : FULL_KINETIC        : inversion of T + eS
  Precond_solver : DEFAULT
  stepsize       :    0.15000000                  energy_gap     :    0.20000000
  eps_taylor     :   0.10000E-15                  max_taylor     :             4
  ----------------------------------- OT ---------------------------------------

  Step     Update method      Time    Convergence         Total energy    Change
  ------------------------------------------------------------------------------
     1 OT DIIS     0.15E+00    8.9     0.00467324     -8480.4728425690 -8.48E+03
     2 OT DIIS     0.15E+00    2.6     0.00318266     -8587.4488310143 -1.07E+02
     3 OT DIIS     0.15E+00    2.6     0.00347210     -8644.7931966768 -5.73E+01
     4 OT DIIS     0.15E+00    2.6     0.00204380     -8678.2157923836 -3.34E+01
     5 OT DIIS     0.15E+00    2.6     0.00148292     -8717.4624183879 -3.92E+01
     6 OT DIIS     0.15E+00    2.6     0.00119954     -8738.7795043572 -2.13E+01
     7 OT DIIS     0.15E+00    2.6     0.00099038     -8755.0185947301 -1.62E+01
     8 OT DIIS     0.15E+00    2.6     0.00079894     -8767.5347825454 -1.25E+01
     9 OT DIIS     0.15E+00    2.6     0.00061581     -8780.1862563834 -1.27E+01
    10 OT DIIS     0.15E+00    2.6     0.00048147     -8788.6147471042 -8.43E+00
    11 OT DIIS     0.15E+00    2.5     0.00038278     -8794.1215228889 -5.51E+00
    12 OT DIIS     0.15E+00    2.6     0.00031960     -8797.5363589594 -3.41E+00
    13 OT DIIS     0.15E+00    2.6     0.00026435     -8799.9344030908 -2.40E+00
    14 OT DIIS     0.15E+00    2.6     0.00023004     -8801.7089305035 -1.77E+00
    15 OT DIIS     0.15E+00    2.6     0.00019592     -8803.0697888564 -1.36E+00
    16 OT DIIS     0.15E+00    2.5     0.00016642     -8804.2000843411 -1.13E+00
    17 OT DIIS     0.15E+00    2.6     0.00014164     -8805.0506655806 -8.51E-01
    18 OT DIIS     0.15E+00    2.6     0.00012638     -8805.6725421207 -6.22E-01
    19 OT DIIS     0.15E+00    2.6     0.00010717     -8806.2171485645 -5.45E-01
    20 OT DIIS     0.15E+00    2.6     0.00009868     -8806.5290018964 -3.12E-01
    21 OT DIIS     0.15E+00    2.6     0.00008484     -8806.8772741195 -3.48E-01
    22 OT DIIS     0.15E+00    2.6     0.00007717     -8807.0943334427 -2.17E-01
    23 OT DIIS     0.15E+00    2.6     0.00006815     -8807.2974129499 -2.03E-01
    24 OT DIIS     0.15E+00    2.6     0.00006019     -8807.4529078233 -1.55E-01
    25 OT DIIS     0.15E+00    2.6     0.00005010     -8807.5989834234 -1.46E-01
    26 OT DIIS     0.15E+00    2.6     0.00004000     -8807.6989662228 -1.00E-01
    27 OT DIIS     0.15E+00    2.6     0.00003462     -8807.7827122402 -8.37E-02
    28 OT DIIS     0.15E+00    2.6     0.00003071     -8807.7824932500  2.19E-04
    29 OT DIIS     0.15E+00    2.6     0.00002690     -8807.8200993195 -3.76E-02
    30 OT DIIS     0.15E+00    2.6     0.00002500     -8807.8399634016 -1.99E-02
    31 OT DIIS     0.15E+00    2.6     0.00002395     -8807.8566460922 -1.67E-02
    32 OT DIIS     0.15E+00    2.6     0.00002328     -8807.8682689643 -1.16E-02
    33 OT DIIS     0.15E+00    2.6     0.00002304     -8807.8827275965 -1.45E-02
    34 OT DIIS     0.15E+00    2.6     0.00002300     -8807.8854890297 -2.76E-03
    35 OT SD       0.15E+00    2.6     0.00002301     -8807.8907467596 -5.26E-03
    36 OT SD       0.15E+00    2.6     0.00002308     -8807.8940817096 -3.33E-03
    37 OT SD       0.15E+00    2.6     0.00002318     -8807.8974407043 -3.36E-03
    38 OT SD       0.15E+00    2.6     0.00002329     -8807.9008284718 -3.39E-03
    39 OT SD       0.15E+00    2.6     0.00002341     -8807.9042491083 -3.42E-03
    40 OT SD       0.15E+00    2.6     0.00002354     -8807.9077063659 -3.46E-03
    41 OT SD       0.15E+00    2.6     0.00002369     -8807.9112037365 -3.50E-03
    42 OT SD       0.15E+00    2.6     0.00002384     -8807.9147444866 -3.54E-03
    43 OT SD       0.15E+00    2.6     0.00002400     -8807.9183316715 -3.59E-03
    44 OT SD       0.15E+00    2.6     0.00002417     -8807.9219681410 -3.64E-03
    45 OT DIIS     0.15E+00    2.6     0.00002435     -8807.9256565391 -3.69E-03
    46 OT DIIS     0.15E+00    2.6     0.00004963     -8807.9134134077  1.22E-02
    47 OT SD       0.15E+00    2.7     0.00005090     -8807.9142581433 -8.45E-04
    48 OT SD       0.15E+00    2.6     0.00004015     -8807.9285241744 -1.43E-02
    49 OT SD       0.15E+00    2.6     0.00003559     -8807.9380058725 -9.48E-03
    50 OT SD       0.15E+00    2.6     0.00003336     -8807.9456851728 -7.68E-03

  Leaving inner SCF loop after reaching    50 steps.


  Electronic density on regular grids:      -4096.0000074780       -0.0000074780
  Core density on regular grids:             4095.9999999927       -0.0000000073
  Total charge density on r-space grids:       -0.0000074852
  Total charge density g-space grids:          -0.0000074852

  Overlap energy of the core charge distribution:               0.00004500798551
  Self energy of the core charge distribution:             -22442.43995950839599
  Core Hamiltonian energy:                                   6603.78898729260254
  Hartree energy:                                            9161.23628975383326
  Exchange-correlation energy:                              -2130.53104771880498

  Total energy:                                             -8807.94568517277912

 *** WARNING in qs_scf.F:576 :: SCF run NOT converged ***


 ENERGY| Total FORCE_EVAL ( QS ) energy [a.u.]:            -8807.952548576895424

 MD_INI| MD initialization
 MD_INI| Potential energy [hartree]                          -0.880795254858E+04
 MD_INI| Kinetic energy [hartree]                             0.218747769838E+01
 MD_INI| Temperature [K]                                              300.000000
 MD_INI| Cell volume [bohr^3]                                 1.037187315243E+05
 MD_INI| Cell volume [ang^3]                                  1.536953010365E+04
 MD_INI| Cell lengths [bohr]      4.69842608E+01  4.69842608E+01  4.69842608E+01
 MD_INI| Cell lengths [ang]       2.48630000E+01  2.48630000E+01  2.48630000E+01
 MD_INI| Cell angles [deg]        9.00000000E+01  9.00000000E+01  9.00000000E+01

 Number of electrons:                                                       4096
 Number of occupied orbitals:                                               2048
 Number of molecular orbitals:                                              2048

 Number of orbital functions:                                              20480
 Number of independent orbital functions:                                  20480

 Extrapolation method: PS Nth order
 Extrapolation order:  0


 SCF WAVEFUNCTION OPTIMIZATION

  ----------------------------------- OT ---------------------------------------
  Minimizer      : DIIS                : direct inversion
                                         in the iterative subspace
                                         using   7 DIIS vectors
                                         safer DIIS on
  Preconditioner : FULL_KINETIC        : inversion of T + eS
  Precond_solver : DEFAULT
  stepsize       :    0.15000000                  energy_gap     :    0.20000000
  eps_taylor     :   0.10000E-15                  max_taylor     :             4
  ----------------------------------- OT ---------------------------------------

  Step     Update method      Time    Convergence         Total energy    Change
  ------------------------------------------------------------------------------
     1 OT DIIS     0.15E+00    7.4     0.00010167     -8807.9545974684 -8.81E+03
     2 OT DIIS     0.15E+00    2.3     0.00007399     -8808.0093472960 -5.47E-02
     3 OT DIIS     0.15E+00    2.3     0.00005493     -8808.0647363211 -5.54E-02
     4 OT DIIS     0.15E+00    2.3     0.00004933     -8808.1021517538 -3.74E-02
     5 OT DIIS     0.15E+00    2.6     0.00004590     -8808.1450809913 -4.29E-02
     6 OT DIIS     0.15E+00    2.6     0.00004348     -8808.1872707710 -4.22E-02
     7 OT DIIS     0.15E+00    2.6     0.00003910     -8808.2476324218 -6.04E-02
     8 OT DIIS     0.15E+00    2.6     0.00002829     -8808.3274419627 -7.98E-02
     9 OT DIIS     0.15E+00    2.6     0.00002025     -8808.3586756656 -3.12E-02
    10 OT DIIS     0.15E+00    2.6     0.00001287     -8808.3785393432 -1.99E-02
    11 OT DIIS     0.15E+00    2.6     0.00001026     -8808.3792661711 -7.27E-04
    12 OT DIIS     0.15E+00    2.7     0.00000705     -8808.3828064641 -3.54E-03

  *** SCF run converged in    12 steps ***


  Electronic density on regular grids:      -4096.0000079114       -0.0000079114
  Core density on regular grids:             4095.9999999916       -0.0000000084
  Total charge density on r-space grids:       -0.0000079198
  Total charge density g-space grids:          -0.0000079198

  Overlap energy of the core charge distribution:               0.00004378132180
  Self energy of the core charge distribution:             -22442.43995950839599
  Core Hamiltonian energy:                                   6601.18534789903060
  Hartree energy:                                            9162.93992304287895
  Exchange-correlation energy:                              -2130.06816167891748

  Total energy:                                             -8808.38280646408202

 ENERGY| Total FORCE_EVAL ( QS ) energy [a.u.]:            -8808.383482773082505

 MD| ***************************************************************************
 MD| Step number                                                               1
 MD| Time [fs]                                                          0.500000
 MD| Conserved quantity [hartree]                            -0.880615757199E+04
 MD| ---------------------------------------------------------------------------
 MD|                                          Instantaneous             Averages
 MD| CPU time per MD step [s]                    177.321848           177.321848
 MD| Energy drift per atom [K]          -0.806913408397E+02   0.000000000000E+00
 MD| Potential energy [hartree]         -0.880838348277E+04  -0.880838348277E+04
 MD| Kinetic energy [hartree]            0.222591078546E+01   0.222591078546E+01
 MD| Temperature [K]                             305.270877           305.270877
 MD| ***************************************************************************

 Number of electrons:                                                       4096
 Number of occupied orbitals:                                               2048
 Number of molecular orbitals:                                              2048

 Number of orbital functions:                                              20480
 Number of independent orbital functions:                                  20480

 Extrapolation method: PS Nth order
 Extrapolation order:  1


 SCF WAVEFUNCTION OPTIMIZATION

  ----------------------------------- OT ---------------------------------------
  Minimizer      : DIIS                : direct inversion
                                         in the iterative subspace
                                         using   7 DIIS vectors
                                         safer DIIS on
  Preconditioner : FULL_KINETIC        : inversion of T + eS
  Precond_solver : DEFAULT
  stepsize       :    0.15000000                  energy_gap     :    0.20000000
  eps_taylor     :   0.10000E-15                  max_taylor     :             4
  ----------------------------------- OT ---------------------------------------

  Step     Update method      Time    Convergence         Total energy    Change
  ------------------------------------------------------------------------------
     1 OT DIIS     0.15E+00    7.5     0.00008001     -8808.4313107149 -8.81E+03
     2 OT DIIS     0.15E+00    2.3     0.00005271     -8808.4637456845 -3.24E-02
     3 OT DIIS     0.15E+00    2.4     0.00003321     -8808.4886507762 -2.49E-02
     4 OT DIIS     0.15E+00    2.3     0.00002251     -8808.5029460424 -1.43E-02
     5 OT DIIS     0.15E+00    2.3     0.00001406     -8808.5119293130 -8.98E-03
     6 OT DIIS     0.15E+00    2.3     0.00000837     -8808.5159229035 -3.99E-03

  *** SCF run converged in     6 steps ***


  Electronic density on regular grids:      -4096.0000084063       -0.0000084063
  Core density on regular grids:             4095.9999999941       -0.0000000059
  Total charge density on r-space grids:       -0.0000084122
  Total charge density g-space grids:          -0.0000084122

  Overlap energy of the core charge distribution:               0.00003948979543
  Self energy of the core charge distribution:             -22442.43995950839599
  Core Hamiltonian energy:                                   6592.75633705143446
  Hartree energy:                                            9168.97934488989267
  Exchange-correlation energy:                              -2127.81168482619796

  Total energy:                                             -8808.51592290347253

 ENERGY| Total FORCE_EVAL ( QS ) energy [a.u.]:            -8808.517234497230675

 MD| ***************************************************************************
 MD| Step number                                                               2
 MD| Time [fs]                                                          1.000000
 MD| Conserved quantity [hartree]                            -0.880616181904E+04
 MD| ---------------------------------------------------------------------------
 MD|                                          Instantaneous             Averages
 MD| CPU time per MD step [s]                     21.947256            99.634552
 MD| Energy drift per atom [K]          -0.815644607567E+02  -0.407822303784E+02
 MD| Potential energy [hartree]         -0.880851723450E+04  -0.880845035864E+04
 MD| Kinetic energy [hartree]            0.235541545493E+01   0.229066312020E+01
 MD| Temperature [K]                             323.031699           314.151288
 MD| ***************************************************************************

 Number of electrons:                                                       4096
 Number of occupied orbitals:                                               2048
 Number of molecular orbitals:                                              2048

 Number of orbital functions:                                              20480
 Number of independent orbital functions:                                  20480

 Extrapolation method: PS Nth order
 Extrapolation order:  2


 SCF WAVEFUNCTION OPTIMIZATION

  ----------------------------------- OT ---------------------------------------
  Minimizer      : DIIS                : direct inversion
                                         in the iterative subspace
                                         using   7 DIIS vectors
                                         safer DIIS on
  Preconditioner : FULL_KINETIC        : inversion of T + eS
  Precond_solver : DEFAULT
  stepsize       :    0.15000000                  energy_gap     :    0.20000000
  eps_taylor     :   0.10000E-15                  max_taylor     :             4
  ----------------------------------- OT ---------------------------------------

  Step     Update method      Time    Convergence         Total energy    Change
  ------------------------------------------------------------------------------
     1 OT DIIS     0.15E+00    7.5     0.00008987     -8808.3717534180 -8.81E+03
     2 OT DIIS     0.15E+00    2.3     0.00007426     -8808.4174427448 -4.57E-02
     3 OT DIIS     0.15E+00    2.3     0.00005876     -8808.4862014043 -6.88E-02
     4 OT DIIS     0.15E+00    2.3     0.00004979     -8808.5436830325 -5.75E-02
     5 OT DIIS     0.15E+00    2.3     0.00004006     -8808.6033834089 -5.97E-02
     6 OT DIIS     0.15E+00    2.6     0.00002840     -8808.6545533057 -5.12E-02
     7 OT DIIS     0.15E+00    2.6     0.00001854     -8808.6820980376 -2.75E-02
     8 OT DIIS     0.15E+00    2.6     0.00001252     -8808.6920689542 -9.97E-03
     9 OT DIIS     0.15E+00    2.6     0.00000891     -8808.6959105633 -3.84E-03

  *** SCF run converged in     9 steps ***


  Electronic density on regular grids:      -4096.0000081507       -0.0000081507
  Core density on regular grids:             4095.9999999985       -0.0000000015
  Total charge density on r-space grids:       -0.0000081522
  Total charge density g-space grids:          -0.0000081522

  Overlap energy of the core charge distribution:               0.00003222727113
  Self energy of the core charge distribution:             -22442.43995950839599
  Core Hamiltonian energy:                                   6579.97334277989739
  Hartree energy:                                            9178.11109290952663
  Exchange-correlation energy:                              -2124.34041897155930

  Total energy:                                             -8808.69591056325953

 ENERGY| Total FORCE_EVAL ( QS ) energy [a.u.]:            -8808.697758349735523

 MD| ***************************************************************************
 MD| Step number                                                               3
 MD| Time [fs]                                                          1.500000
 MD| Conserved quantity [hartree]                            -0.880616479867E+04
 MD| ---------------------------------------------------------------------------
 MD|                                          Instantaneous             Averages
 MD| CPU time per MD step [s]                     30.316530            76.528544
 MD| Energy drift per atom [K]          -0.821770209033E+02  -0.545804938867E+02
 MD| Potential energy [hartree]         -0.880869775835E+04  -0.880853282521E+04
 MD| Kinetic energy [hartree]            0.253295967500E+01   0.237142863846E+01
 MD| Temperature [K]                             347.380868           325.227815
 MD| ***************************************************************************

 Number of electrons:                                                       4096
 Number of occupied orbitals:                                               2048
 Number of molecular orbitals:                                              2048

 Number of orbital functions:                                              20480
 Number of independent orbital functions:                                  20480

 Extrapolation method: PS Nth order
 Extrapolation order:  3


 SCF WAVEFUNCTION OPTIMIZATION

  ----------------------------------- OT ---------------------------------------
  Minimizer      : DIIS                : direct inversion
                                         in the iterative subspace
                                         using   7 DIIS vectors
                                         safer DIIS on
  Preconditioner : FULL_KINETIC        : inversion of T + eS
  Precond_solver : DEFAULT
  stepsize       :    0.15000000                  energy_gap     :    0.20000000
  eps_taylor     :   0.10000E-15                  max_taylor     :             4
  ----------------------------------- OT ---------------------------------------

  Step     Update method      Time    Convergence         Total energy    Change
  ------------------------------------------------------------------------------
     1 OT DIIS     0.15E+00    7.4     0.00008299     -8808.7601026604 -8.81E+03
     2 OT DIIS     0.15E+00    2.3     0.00005686     -8808.7956198992 -3.55E-02
     3 OT DIIS     0.15E+00    2.3     0.00003614     -8808.8258142253 -3.02E-02
     4 OT DIIS     0.15E+00    2.4     0.00002270     -8808.8440346551 -1.82E-02
     5 OT DIIS     0.15E+00    2.4     0.00001489     -8808.8523329797 -8.30E-03
     6 OT DIIS     0.15E+00    2.4     0.00000969     -8808.8563577439 -4.02E-03

  *** SCF run converged in     6 steps ***


  Electronic density on regular grids:      -4096.0000085821       -0.0000085821
  Core density on regular grids:             4096.0000000009        0.0000000009
  Total charge density on r-space grids:       -0.0000085812
  Total charge density g-space grids:          -0.0000085812

  Overlap energy of the core charge distribution:               0.00002346614825
  Self energy of the core charge distribution:             -22442.43995950839599
  Core Hamiltonian energy:                                   6564.27158324730772
  Hartree energy:                                            9189.38286299671745
  Exchange-correlation energy:                              -2120.07086794569705

  Total energy:                                             -8808.85635774391812

 ENERGY| Total FORCE_EVAL ( QS ) energy [a.u.]:            -8808.858123935489857

 MD| ***************************************************************************
 MD| Step number                                                               4
 MD| Time [fs]                                                          2.000000
 MD| Conserved quantity [hartree]                            -0.880616980183E+04
 MD| ---------------------------------------------------------------------------
 MD|                                          Instantaneous             Averages
 MD| CPU time per MD step [s]                     22.890059            63.118923
 MD| Energy drift per atom [K]          -0.832055817259E+02  -0.617367658465E+02
 MD| Potential energy [hartree]         -0.880885812394E+04  -0.880861414989E+04
 MD| Kinetic energy [hartree]            0.268832210602E+01   0.245065200535E+01
 MD| Temperature [K]                             368.687933           336.092844
 MD| ***************************************************************************

 Number of electrons:                                                       4096
 Number of occupied orbitals:                                               2048
 Number of molecular orbitals:                                              2048

 Number of orbital functions:                                              20480
 Number of independent orbital functions:                                  20480

 Extrapolation method: PS Nth order
 Extrapolation order:  3


 SCF WAVEFUNCTION OPTIMIZATION

  ----------------------------------- OT ---------------------------------------
  Minimizer      : DIIS                : direct inversion
                                         in the iterative subspace
                                         using   7 DIIS vectors
                                         safer DIIS on
  Preconditioner : FULL_KINETIC        : inversion of T + eS
  Precond_solver : DEFAULT
  stepsize       :    0.15000000                  energy_gap     :    0.20000000
  eps_taylor     :   0.10000E-15                  max_taylor     :             4
  ----------------------------------- OT ---------------------------------------

  Step     Update method      Time    Convergence         Total energy    Change
  ------------------------------------------------------------------------------
     1 OT DIIS     0.15E+00    7.5     0.00005398     -8808.8521913343 -8.81E+03
     2 OT DIIS     0.15E+00    2.3     0.00004360     -8808.8685913981 -1.64E-02
     3 OT DIIS     0.15E+00    2.6     0.00002876     -8808.8948206894 -2.62E-02
     4 OT DIIS     0.15E+00    2.6     0.00002104     -8808.9082131838 -1.34E-02
     5 OT DIIS     0.15E+00    2.6     0.00001317     -8808.9185202257 -1.03E-02
     6 OT DIIS     0.15E+00    2.7     0.00000843     -8808.9223718123 -3.85E-03

  *** SCF run converged in     6 steps ***


  Electronic density on regular grids:      -4096.0000071800       -0.0000071800
  Core density on regular grids:             4095.9999999999       -0.0000000001
  Total charge density on r-space grids:       -0.0000071801
  Total charge density g-space grids:          -0.0000071801

  Overlap energy of the core charge distribution:               0.00001548084552
  Self energy of the core charge distribution:             -22442.43995950839599
  Core Hamiltonian energy:                                   6547.40962049621703
  Hartree energy:                                            9201.58656355176572
  Exchange-correlation energy:                              -2115.47861183274836

  Total energy:                                             -8808.92237181231758

 ENERGY| Total FORCE_EVAL ( QS ) energy [a.u.]:            -8808.923934891794488

 MD| ***************************************************************************
 MD| Step number                                                               5
 MD| Time [fs]                                                          2.500000
 MD| Conserved quantity [hartree]                            -0.880617228995E+04
 MD| ---------------------------------------------------------------------------
 MD|                                          Instantaneous             Averages
 MD| CPU time per MD step [s]                     23.851464            55.265431
 MD| Energy drift per atom [K]          -0.837170950814E+02  -0.661328316935E+02
 MD| Potential energy [hartree]         -0.880892393489E+04  -0.880867610689E+04
 MD| Kinetic energy [hartree]            0.275164494455E+01   0.251085059319E+01
 MD| Temperature [K]                             377.372297           344.348735
 MD| ***************************************************************************

 Number of electrons:                                                       4096
 Number of occupied orbitals:                                               2048
 Number of molecular orbitals:                                              2048

 Number of orbital functions:                                              20480
 Number of independent orbital functions:                                  20480

 Extrapolation method: PS Nth order
 Extrapolation order:  3


 SCF WAVEFUNCTION OPTIMIZATION

  ----------------------------------- OT ---------------------------------------
  Minimizer      : DIIS                : direct inversion
                                         in the iterative subspace
                                         using   7 DIIS vectors
                                         safer DIIS on
  Preconditioner : FULL_KINETIC        : inversion of T + eS
  Precond_solver : DEFAULT
  stepsize       :    0.15000000                  energy_gap     :    0.20000000
  eps_taylor     :   0.10000E-15                  max_taylor     :             4
  ----------------------------------- OT ---------------------------------------

  Step     Update method      Time    Convergence         Total energy    Change
  ------------------------------------------------------------------------------
     1 OT DIIS     0.15E+00    7.4     0.00004459     -8808.8152219174 -8.81E+03
     2 OT DIIS     0.15E+00    2.3     0.00003657     -8808.8265178948 -1.13E-02
     3 OT DIIS     0.15E+00    2.3     0.00002088     -8808.8466699302 -2.02E-02
     4 OT DIIS     0.15E+00    2.3     0.00001310     -8808.8539213877 -7.25E-03
     5 OT DIIS     0.15E+00    2.3     0.00000884     -8808.8567200199 -2.80E-03

  *** SCF run converged in     5 steps ***


  Electronic density on regular grids:      -4096.0000062625       -0.0000062625
  Core density on regular grids:             4095.9999999983       -0.0000000017
  Total charge density on r-space grids:       -0.0000062642
  Total charge density g-space grids:          -0.0000062642

  Overlap energy of the core charge distribution:               0.00000971625937
  Self energy of the core charge distribution:             -22442.43995950839599
  Core Hamiltonian energy:                                   6531.17273234551067
  Hartree energy:                                            9213.44168338582858
  Exchange-correlation energy:                              -2111.03118595913656

  Total energy:                                             -8808.85672001993407

 ENERGY| Total FORCE_EVAL ( QS ) energy [a.u.]:            -8808.858096080668474

 MD| ***************************************************************************
 MD| Step number                                                               6
 MD| Time [fs]                                                          3.000000
 MD| Conserved quantity [hartree]                            -0.880617011370E+04
 MD| ---------------------------------------------------------------------------
 MD|                                          Instantaneous             Averages
 MD| CPU time per MD step [s]                     20.423696            49.458475
 MD| Energy drift per atom [K]          -0.832696972967E+02  -0.689889759607E+02
 MD| Potential energy [hartree]         -0.880885809608E+04  -0.880870643842E+04
 MD| Kinetic energy [hartree]            0.268798237842E+01   0.254037255740E+01
 MD| Temperature [K]                             368.641342           348.397503
 MD| ***************************************************************************

 Number of electrons:                                                       4096
 Number of occupied orbitals:                                               2048
 Number of molecular orbitals:                                              2048

 Number of orbital functions:                                              20480
 Number of independent orbital functions:                                  20480

 Extrapolation method: PS Nth order
 Extrapolation order:  3


 SCF WAVEFUNCTION OPTIMIZATION

  ----------------------------------- OT ---------------------------------------
  Minimizer      : DIIS                : direct inversion
                                         in the iterative subspace
                                         using   7 DIIS vectors
                                         safer DIIS on
  Preconditioner : FULL_KINETIC        : inversion of T + eS
  Precond_solver : DEFAULT
  stepsize       :    0.15000000                  energy_gap     :    0.20000000
  eps_taylor     :   0.10000E-15                  max_taylor     :             4
  ----------------------------------- OT ---------------------------------------

  Step     Update method      Time    Convergence         Total energy    Change
  ------------------------------------------------------------------------------
     1 OT DIIS     0.15E+00    7.4     0.00004551     -8808.6384767936 -8.81E+03
     2 OT DIIS     0.15E+00    2.3     0.00003729     -8808.6502436315 -1.18E-02
     3 OT DIIS     0.15E+00    2.3     0.00002023     -8808.6710753828 -2.08E-02
     4 OT DIIS     0.15E+00    2.4     0.00001308     -8808.6771449555 -6.07E-03
     5 OT DIIS     0.15E+00    2.3     0.00000755     -8808.6802141035 -3.07E-03

  *** SCF run converged in     5 steps ***


  Electronic density on regular grids:      -4096.0000050933       -0.0000050933
  Core density on regular grids:             4095.9999999989       -0.0000000011
  Total charge density on r-space grids:       -0.0000050945
  Total charge density g-space grids:          -0.0000050945

  Overlap energy of the core charge distribution:               0.00000622092220
  Self energy of the core charge distribution:             -22442.43995950839599
  Core Hamiltonian energy:                                   6517.03118217444353
  Hartree energy:                                            9223.86272483482389
  Exchange-correlation energy:                              -2107.13416782526292

  Total energy:                                             -8808.68021410346955

 ENERGY| Total FORCE_EVAL ( QS ) energy [a.u.]:            -8808.681147704410250

 MD| ***************************************************************************
 MD| Step number                                                               7
 MD| Time [fs]                                                          3.500000
 MD| Conserved quantity [hartree]                            -0.880616595788E+04
 MD| ---------------------------------------------------------------------------
 MD|                                          Instantaneous             Averages
 MD| CPU time per MD step [s]                     20.397534            45.306912
 MD| Energy drift per atom [K]          -0.824153327715E+02  -0.709070269337E+02
 MD| Potential energy [hartree]         -0.880868114770E+04  -0.880870282546E+04
 MD| Kinetic energy [hartree]            0.251518982632E+01   0.253677502439E+01
 MD| Temperature [K]                             344.943836           347.904122
 MD| ***************************************************************************

 Number of electrons:                                                       4096
 Number of occupied orbitals:                                               2048
 Number of molecular orbitals:                                              2048

 Number of orbital functions:                                              20480
 Number of independent orbital functions:                                  20480

 Extrapolation method: PS Nth order
 Extrapolation order:  3


 SCF WAVEFUNCTION OPTIMIZATION

  ----------------------------------- OT ---------------------------------------
  Minimizer      : DIIS                : direct inversion
                                         in the iterative subspace
                                         using   7 DIIS vectors
                                         safer DIIS on
  Preconditioner : FULL_KINETIC        : inversion of T + eS
  Precond_solver : DEFAULT
  stepsize       :    0.15000000                  energy_gap     :    0.20000000
  eps_taylor     :   0.10000E-15                  max_taylor     :             4
  ----------------------------------- OT ---------------------------------------

  Step     Update method      Time    Convergence         Total energy    Change
  ------------------------------------------------------------------------------
     1 OT DIIS     0.15E+00    7.4     0.00004639     -8808.4083512931 -8.81E+03
     2 OT DIIS     0.15E+00    2.3     0.00003771     -8808.4205202037 -1.22E-02
     3 OT DIIS     0.15E+00    2.4     0.00002094     -8808.4409407349 -2.04E-02
     4 OT DIIS     0.15E+00    2.3     0.00001360     -8808.4479497688 -7.01E-03
     5 OT DIIS     0.15E+00    2.4     0.00001073     -8808.4504245906 -2.47E-03
     6 OT DIIS     0.15E+00    2.3     0.00000737     -8808.4530066202 -2.58E-03

  *** SCF run converged in     6 steps ***


  Electronic density on regular grids:      -4096.0000038468       -0.0000038468
  Core density on regular grids:             4096.0000000008        0.0000000008
  Total charge density on r-space grids:       -0.0000038460
  Total charge density g-space grids:          -0.0000038460

  Overlap energy of the core charge distribution:               0.00000436187212
  Self energy of the core charge distribution:             -22442.43995950839599
  Core Hamiltonian energy:                                   6506.06509259891300
  Hartree energy:                                            9232.01158657555425
  Exchange-correlation energy:                              -2104.08973064813745

  Total energy:                                             -8808.45300662019508

 ENERGY| Total FORCE_EVAL ( QS ) energy [a.u.]:            -8808.454571321155527

 MD| ***************************************************************************
 MD| Step number                                                               8
 MD| Time [fs]                                                          4.000000
 MD| Conserved quantity [hartree]                            -0.880616115094E+04
 MD| ---------------------------------------------------------------------------
 MD|                                          Instantaneous             Averages
 MD| CPU time per MD step [s]                     22.736403            42.485599
 MD| Energy drift per atom [K]          -0.814271108664E+02  -0.722220374253E+02
 MD| Potential energy [hartree]         -0.880845457132E+04  -0.880867179369E+04
 MD| Kinetic energy [hartree]            0.229342038009E+01   0.250635569385E+01
 MD| Temperature [K]                             314.529430           343.732285
 MD| ***************************************************************************

 Number of electrons:                                                       4096
 Number of occupied orbitals:                                               2048
 Number of molecular orbitals:                                              2048

 Number of orbital functions:                                              20480
 Number of independent orbital functions:                                  20480

 Extrapolation method: PS Nth order
 Extrapolation order:  3


 SCF WAVEFUNCTION OPTIMIZATION

  ----------------------------------- OT ---------------------------------------
  Minimizer      : DIIS                : direct inversion
                                         in the iterative subspace
                                         using   7 DIIS vectors
                                         safer DIIS on
  Preconditioner : FULL_KINETIC        : inversion of T + eS
  Precond_solver : DEFAULT
  stepsize       :    0.15000000                  energy_gap     :    0.20000000
  eps_taylor     :   0.10000E-15                  max_taylor     :             4
  ----------------------------------- OT ---------------------------------------

  Step     Update method      Time    Convergence         Total energy    Change
  ------------------------------------------------------------------------------
     1 OT DIIS     0.15E+00    7.5     0.00004050     -8808.2146964359 -8.81E+03
     2 OT DIIS     0.15E+00    2.3     0.00003407     -8808.2241581859 -9.46E-03
     3 OT DIIS     0.15E+00    2.4     0.00001718     -8808.2450181509 -2.09E-02
     4 OT DIIS     0.15E+00    2.3     0.00001245     -8808.2495173425 -4.50E-03
     5 OT DIIS     0.15E+00    2.4     0.00000891     -8808.2522162487 -2.70E-03

  *** SCF run converged in     5 steps ***


  Electronic density on regular grids:      -4096.0000022243       -0.0000022243
  Core density on regular grids:             4096.0000000016        0.0000000016
  Total charge density on r-space grids:       -0.0000022227
  Total charge density g-space grids:          -0.0000022227

  Overlap energy of the core charge distribution:               0.00000353692322
  Self energy of the core charge distribution:             -22442.43995950839599
  Core Hamiltonian energy:                                   6498.75943243261281
  Hartree energy:                                            9237.49747939466033
  Exchange-correlation energy:                              -2102.06917210454594

  Total energy:                                             -8808.25221624874575

 ENERGY| Total FORCE_EVAL ( QS ) energy [a.u.]:            -8808.253873775061948

 MD| ***************************************************************************
 MD| Step number                                                               9
 MD| Time [fs]                                                          4.500000
 MD| Conserved quantity [hartree]                            -0.880615635587E+04
 MD| ---------------------------------------------------------------------------
 MD|                                          Instantaneous             Averages
 MD| CPU time per MD step [s]                     20.432346            40.035237
 MD| Energy drift per atom [K]          -0.804413281740E+02  -0.731352919529E+02
 MD| Potential energy [hartree]         -0.880825387378E+04  -0.880862535815E+04
 MD| Kinetic energy [hartree]            0.209751790614E+01   0.246092927299E+01
 MD| Temperature [K]                             287.662531           337.502313
 MD| ***************************************************************************

 Number of electrons:                                                       4096
 Number of occupied orbitals:                                               2048
 Number of molecular orbitals:                                              2048

 Number of orbital functions:                                              20480
 Number of independent orbital functions:                                  20480

 Extrapolation method: PS Nth order
 Extrapolation order:  3


 SCF WAVEFUNCTION OPTIMIZATION

  ----------------------------------- OT ---------------------------------------
  Minimizer      : DIIS                : direct inversion
                                         in the iterative subspace
                                         using   7 DIIS vectors
                                         safer DIIS on
  Preconditioner : FULL_KINETIC        : inversion of T + eS
  Precond_solver : DEFAULT
  stepsize       :    0.15000000                  energy_gap     :    0.20000000
  eps_taylor     :   0.10000E-15                  max_taylor     :             4
  ----------------------------------- OT ---------------------------------------

  Step     Update method      Time    Convergence         Total energy    Change
  ------------------------------------------------------------------------------
     1 OT DIIS     0.15E+00    7.5     0.00004012     -8808.1037282214 -8.81E+03
     2 OT DIIS     0.15E+00    2.3     0.00003342     -8808.1129255161 -9.20E-03
     3 OT DIIS     0.15E+00    2.4     0.00002048     -8808.1296918416 -1.68E-02
     4 OT DIIS     0.15E+00    2.4     0.00001263     -8808.1379700950 -8.28E-03
     5 OT DIIS     0.15E+00    2.4     0.00001017     -8808.1402114993 -2.24E-03
     6 OT DIIS     0.15E+00    2.6     0.00000715     -8808.1425471058 -2.34E-03

  *** SCF run converged in     6 steps ***


  Electronic density on regular grids:      -4096.0000006753       -0.0000006753
  Core density on regular grids:             4096.0000000008        0.0000000008
  Total charge density on r-space grids:       -0.0000006746
  Total charge density g-space grids:          -0.0000006746

  Overlap energy of the core charge distribution:               0.00000340787767
  Self energy of the core charge distribution:             -22442.43995950839599
  Core Hamiltonian energy:                                   6495.52247095481744
  Hartree energy:                                            9239.94935364179764
  Exchange-correlation energy:                              -2101.17441560185853

  Total energy:                                             -8808.14254710576279

 ENERGY| Total FORCE_EVAL ( QS ) energy [a.u.]:            -8808.143948174369143

 MD| ***************************************************************************
 MD| Step number                                                              10
 MD| Time [fs]                                                          5.000000
 MD| Conserved quantity [hartree]                            -0.880615520838E+04
 MD| ---------------------------------------------------------------------------
 MD|                                          Instantaneous             Averages
 MD| CPU time per MD step [s]                     23.117833            38.343497
 MD| Energy drift per atom [K]          -0.802054247766E+02  -0.738423052353E+02
 MD| Potential energy [hartree]         -0.880814394817E+04  -0.880857721715E+04
 MD| Kinetic energy [hartree]            0.198873979344E+01   0.241371032504E+01
 MD| Temperature [K]                             272.744238           331.026505
 MD| ***************************************************************************

 -------------------------------------------------------------------------------
 -                                                                             -
 -                                DBCSR STATISTICS                             -
 -                                                                             -
 -------------------------------------------------------------------------------
 COUNTER                                    TOTAL       BLAS       SMM       ACC
 flops     9 x    32 x    32          13287555072     100.0%      0.0%      0.0%
 flops    22 x    32 x    32          16240345088     100.0%      0.0%      0.0%
 flops    32 x   256 x   256         904090615808     100.0%      0.0%      0.0%
 flops   489 x   256 x   256        2288932356096     100.0%      0.0%      0.0%
 flops   498 x   256 x   256        2331059945472     100.0%      0.0%      0.0%
 flops    96 x   256 x   256        2712271847424     100.0%      0.0%      0.0%
 flops   649 x   256 x   256        3037867278336     100.0%      0.0%      0.0%
 flops   667 x   256 x   256        3122122457088     100.0%      0.0%      0.0%
 flops    32 x   256 x  2560        4864050462720     100.0%      0.0%      0.0%
 flops   489 x   256 x  2560        5209577226240     100.0%      0.0%      0.0%
 flops   498 x   256 x  2560        5305459015680     100.0%      0.0%      0.0%
 flops     9 x     9 x   256        5648350040064     100.0%      0.0%      0.0%
 flops   702 x   256 x   256        6571903942656     100.0%      0.0%      0.0%
 flops   649 x   256 x  2560        6914142371840     100.0%      0.0%      0.0%
 flops   667 x   256 x  2560        7105905950720     100.0%      0.0%      0.0%
 flops   511 x   256 x   256        7175732723712     100.0%      0.0%      0.0%
 flops   520 x   256 x   256        7302115491840     100.0%      0.0%      0.0%
 flops     9 x    22 x   256        7855827369984     100.0%      0.0%      0.0%
 flops    22 x     9 x   256        7866447519744     100.0%      0.0%      0.0%
 flops    64 x   256 x   256       10849087389696     100.0%      0.0%      0.0%
 flops    22 x    22 x   256       11004752822272     100.0%      0.0%      0.0%
 flops   658 x   256 x   256       12319979470848     100.0%      0.0%      0.0%
 flops   689 x   256 x   256       12900404035584     100.0%      0.0%      0.0%
 flops    96 x   256 x  2560       14592151388160     100.0%      0.0%      0.0%
 flops   702 x   256 x  2560       14957559152640     100.0%      0.0%      0.0%
 flops   511 x   256 x  2560       16331864801280     100.0%      0.0%      0.0%
 flops   520 x   256 x  2560       16619510169600     100.0%      0.0%      0.0%
 flops   680 x   256 x   256       22280813936640     100.0%      0.0%      0.0%
 flops     9 x    32 x     9       23722505551872     100.0%      0.0%      0.0%
 flops   658 x   256 x  2560       28040096645120     100.0%      0.0%      0.0%
 flops   689 x   256 x  2560       29361134632960     100.0%      0.0%      0.0%
 flops     9 x    32 x    22       33153656684544     100.0%      0.0%      0.0%
 flops    22 x    32 x     9       33153656684544     100.0%      0.0%      0.0%
 flops    22 x    32 x    22       46115724689408     100.0%      0.0%      0.0%
 flops   680 x   256 x  2560       50710813081600     100.0%      0.0%      0.0%
 flops    64 x   256 x  2560       58368605552640     100.0%      0.0%      0.0%
 flops inhomo. stacks              54161013997568     100.0%      0.0%      0.0%
 flops total                       574.888715E+12     100.0%      0.0%      0.0%
 flops max/rank                      9.005098E+12     100.0%      0.0%      0.0%
 matmuls inhomo. stacks                    219200     100.0%      0.0%      0.0%
 matmuls total                        11638272128     100.0%      0.0%      0.0%
 number of processed stacks              17686776     100.0%      0.0%      0.0%
 average stack size                                   658.0       0.0       0.0
 marketing flops                     1.147134E+15
 -------------------------------------------------------------------------------
 # multiplications                           2431
 max memory usage/rank             877.187072E+06
 # max total images/rank                        1
 # max 3D layers                                1
 # MPI messages exchanged                 2178176
 MPI messages size (bytes):
  total size                        10.465579E+12
  min size                           0.000000E+00
  max size                          52.428800E+06
  average size                       4.804744E+06
 MPI breakdown and total messages size (bytes):
             size <=      128               14168                        0
       128 < size <=     8192                   0                        0
      8192 < size <=    32768                   0                        0
     32768 < size <=   131072                 616                 40370176
    131072 < size <=  4194304             1004416             526603255808
   4194304 < size <= 16777216             1102080            6955934264608
  16777216 < size                           56896            2982989004800
 -------------------------------------------------------------------------------
 -                                                                             -
 -                      DBCSR MESSAGE PASSING PERFORMANCE                      -
 -                                                                             -
 -------------------------------------------------------------------------------
 ROUTINE             CALLS      AVE VOLUME [Bytes]
 MP_Bcast               37                     12.
 MP_Allreduce        13003                     67.
 MP_Alltoall          9270                 710222.
 MP_ISend            77748                2112670.
 MP_IRecv            77748                2112342.
 -------------------------------------------------------------------------------

 -------------------------------------------------------------------------------
 -                                                                             -
 -                                GRID STATISTICS                              -
 -                                                                             -
 -------------------------------------------------------------------------------
 LP    KERNEL             BACKEND                              COUNT     PERCENT
 1     collocate ortho    REF                              135745301      21.28%
 1     integrate ortho    REF                              130493488      20.46%
 2     integrate ortho    REF                               88995618      13.95%
 2     collocate ortho    REF                               84560451      13.26%
 0     collocate ortho    REF                               75171698      11.78%
 0     integrate ortho    REF                               68664071      10.76%
 3     integrate ortho    REF                               26282166       4.12%
 3     collocate ortho    REF                               20755016       3.25%
 4     integrate ortho    REF                                3293394       0.52%
 4     collocate ortho    REF                                1638196       0.26%
 0     collocate general  REF                                1081344       0.17%
 1     integrate general  REF                                1081344       0.17%
 5     integrate ortho    REF                                 141925       0.02%
 -------------------------------------------------------------------------------

 MEMORY| Estimated peak process memory [MiB]                                 737

 -------------------------------------------------------------------------------
 -                                                                             -
 -                         MESSAGE PASSING PERFORMANCE                         -
 -                                                                             -
 -------------------------------------------------------------------------------

 ROUTINE             CALLS      AVE VOLUME [Bytes]
 MP_Group                4
 MP_Bcast             4017                  58266.
 MP_Allreduce        11013                   1637.
 MP_Sync               136
 MP_Alltoall          1955                7777246.
 MP_ISendRecv        32004                  75384.
 MP_Wait             45784
 MP_comm_split          66
 MP_ISend            11660                 282796.
 MP_IRecv            11660                 282796.
 -------------------------------------------------------------------------------


 -------------------------------------------------------------------------------
 -                                                                             -
 -                           R E F E R E N C E S                               -
 -                                                                             -
 -------------------------------------------------------------------------------
 
 CP2K version 8.2, the CP2K developers group (2021).
 CP2K is freely available from https://www.cp2k.org/ .

 Kuehne,Thomas D.; Iannuzzi,Marcella; Del Ben,Mauro;
 Rybkin,Vladimir V.; Seewald,Patrick; Stein,Frederick; Laino,Teodoro;
 Khaliullin,Rustam Z.; Schuett,Ole; Schiffmann,Florian; Golze,Dorothea;
 Wilhelm,Jan; Chulkov,Sergey; Bani-Hashemian,Mohammad Hossein;
 Weber,Valery; Borstnik,Urban; Taillefumier,Mathieu;
 Jakobovits,Alice Shoshana; Lazzaro,Alfio; Pabst,Hans; Mueller,Tiziano;
 Schade,Robert; Guidon,Manuel; Andermatt,Samuel; Holmberg,Nico;
 Schenter,Gregory K.; Hehn,Anna; Bussy,Augustin; Belleflamme,Fabian;
 Tabacchi,Gloria; Gloess,Andreas; Lass,Michael; Bethune,Iain;
 Mundy,Christopher J.; Plessl,Christian; Watkins,Matt;
 VandeVondele,Joost; Krack,Matthias; Hutter,Juerg. 
 The Journal of Chemical Physics, 152 (19), (2020). 
 CP2K: An electronic structure and molecular dynamics software package -
 Quickstep: Efficient and accurate electronic structure calculations.
 https://doi.org/10.1063/5.0007045

 Schuett, Ole; Messmer, Peter; Hutter, Juerg; VandeVondele, Joost. 
 Electronic Structure Calculations on Graphics Processing Units, John
 Wiley & Sons, Ltd, 173-190 (2016). 
 GPU-Accelerated Sparse Matrix-Matrix Multiplication for
 Linear Scaling Density Functional Theory.
 https://doi.org/10.1002/9781118670712.ch8

 Borstnik, U; VandeVondele, J; Weber, V; Hutter, J. 
 PARALLEL COMPUTING, 40 (5-6), 47-58 (2014). 
 Sparse matrix multiplication: The distributed block-compressed sparse
 row library.
 https://doi.org/10.1016/j.parco.2014.03.012

 Hutter, J; Iannuzzi, M; Schiffmann, F; VandeVondele, J. 
 WIREs Comput Mol Sci., 4 (1), 15-25 (2014). 
 CP2K: atomistic simulations of condensed matter systems.
 https://doi.org/10.1002/wcms.1159

 Marek, A; Blum, V; Johanni, R; Havu, V; Lang, B; Auckenthaler, T;
 Heinecke, A; Bungartz, H; Lederer, H. 
 Journal of Physics: Condensed Matter, 26 (21), (2014). 
 The ELPA library: scalable parallel eigenvalue solutions for
 electronic structure
 theory and computational science.
 https://doi.org/10.1088/0953-8984/26/21/213201

 Krack, M. 
 THEORETICAL CHEMISTRY ACCOUNTS, 114 (1-3), 145-152 (2005). 
 Pseudopotentials for H to Kr optimized for gradient-corrected
 exchange-correlation functionals.
 https://doi.org/10.1007/s00214-005-0655-y

 VandeVondele, J; Krack, M; Mohamed, F; Parrinello, M; Chassaing, T;
 Hutter, J. COMPUTER PHYSICS COMMUNICATIONS, 167 (2), 103-128 (2005). 
 QUICKSTEP: Fast and accurate density functional calculations using a
 mixed Gaussian and plane waves approach.
 https://doi.org/10.1016/j.cpc.2004.12.014

 Frigo, M; Johnson, SG. 
 PROCEEDINGS OF THE IEEE, 93 (2), 216-231 (2005). 
 The design and implementation of FFTW3.
 https://doi.org/10.1109/JPROC.2004.840301

 VandeVondele, J; Hutter, J. 
 JOURNAL OF CHEMICAL PHYSICS, 118 (10), 4365-4369 (2003). 
 An efficient orbital transformation method for electronic structure
 calculations.
 https://doi.org/10.1063/1.1543154

 Hartwigsen, C; Goedecker, S; Hutter, J. 
 PHYSICAL REVIEW B, 58 (7), 3641-3662 (1998). 
 Relativistic separable dual-space Gaussian pseudopotentials from H to Rn.
 https://doi.org/10.1103/PhysRevB.58.3641

 Lippert, G; Hutter, J; Parrinello, M. 
 MOLECULAR PHYSICS, 92 (3), 477-487 (1997). 
 A hybrid Gaussian and plane wave density functional scheme.
 https://doi.org/10.1080/002689797170220

 Goedecker, S; Teter, M; Hutter, J. 
 PHYSICAL REVIEW B, 54 (3), 1703-1710 (1996). 
 Separable dual-space Gaussian pseudopotentials.
 https://doi.org/10.1103/PhysRevB.54.1703


 -------------------------------------------------------------------------------
 -                                                                             -
 -                                T I M I N G                                  -
 -                                                                             -
 -------------------------------------------------------------------------------
 SUBROUTINE                       CALLS  ASD         SELF TIME        TOTAL TIME
                                MAXIMUM       AVERAGE  MAXIMUM  AVERAGE  MAXIMUM
 CP2K                                 1  1.0    0.188    0.191  383.883  383.884
 qs_mol_dyn_low                       1  2.0    0.004    0.005  383.489  383.520
 qs_forces                           11  3.9    0.004    0.005  383.317  383.323
 qs_energies                         11  4.9    0.011    0.021  375.097  375.183
 scf_env_do_scf                      11  5.9    0.001    0.001  348.127  348.140
 scf_env_do_scf_inner_loop          116  6.6    0.004    0.013  286.357  286.358
 velocity_verlet                     10  3.0    0.002    0.002  243.465  243.466
 dbcsr_multiply_generic            2431 12.5    0.241    0.251  232.158  235.262
 qs_scf_new_mos                     116  7.6    0.001    0.002  216.205  217.572
 qs_scf_loop_do_ot                  116  8.6    0.001    0.001  216.203  217.571
 ot_scf_mini                        116  9.6    0.005    0.006  203.072  204.427
 multiply_cannon                   2431 13.5    0.341    0.362  185.960  192.525
 multiply_cannon_loop              2431 14.5    0.308    0.346  180.000  186.545
 multiply_cannon_multrec          19448 15.5  162.517  171.466  162.546  171.494
 ot_mini                            116 10.6    0.002    0.002  128.298  129.716
 qs_ot_get_derivative               116 11.6    0.002    0.002   65.103   66.312
 apply_preconditioner_dbcsr         127 12.6    0.000    0.001   61.318   64.329
 apply_single                       127 13.6    0.001    0.001   61.318   64.329
 ot_diis_step                       116 11.6    0.010    0.011   62.639   62.640
 init_scf_loop                       11  6.9    0.001    0.001   61.513   61.515
 prepare_preconditioner              11  7.9    0.000    0.000   53.845   54.030
 make_preconditioner                 11  8.9    0.000    0.001   53.845   54.030
 rebuild_ks_matrix                  127  8.3    0.001    0.001   52.569   53.784
 qs_ks_build_kohn_sham_matrix       127  9.3    0.166    0.312   52.568   53.783
 make_full_inverse_cholesky          11  9.9    0.001    0.001   51.707   52.080
 qs_ks_update_qs_env                127  7.6    0.002    0.002   47.725   48.843
 qs_ot_get_p                        127 10.4    0.001    0.002   31.772   34.081
 cp_fm_cholesky_invert               11 10.9   31.783   31.789   31.783   31.789
 make_m2s                          4862 13.5    0.133    0.163   30.539   31.395
 qs_rho_update_rho                  127  7.7    0.001    0.001   28.806   29.170
 calculate_rho_elec                 127  8.7    0.184    0.190   28.805   29.169
 mp_waitall_1                    228604 16.3   19.822   28.436   19.822   28.436
 make_images                       4862 14.5    2.782    3.243   24.041   25.241
 qs_ot_get_derivative_diag           62 12.2    0.003    0.003   23.183   24.047
 init_scf_run                        11  5.9    0.000    0.001   20.000   20.002
 scf_env_initial_rho_setup           11  6.9    0.000    0.001   20.000   20.002
 grid_collocate_task_list           127  9.7   18.076   19.164   18.076   19.164
 mp_irecv_dv                      47634 16.1   10.002   18.049   10.002   18.049
 wfi_extrapolate                     11  7.9    0.002    0.002   17.988   17.988
 sum_up_and_integrate               127 10.3    0.082    0.091   17.863   17.912
 integrate_v_rspace                 127 11.3    0.005    0.005   17.781   17.836
 qs_ot_p2m_diag                      66 11.2    0.279    0.292   17.646   17.680
 mp_sum_l                         11831 13.4   11.296   17.421   11.296   17.421
 cp_fm_cholesky_decompose            22 10.9   16.355   16.436   16.355   16.436
 cp_dbcsr_syevd                      66 12.2    0.007    0.008   16.190   16.203
 qs_ot_get_derivative_taylor         54 13.0    0.002    0.003   15.812   16.186
 cp_fm_diag_elpa                     66 13.2    0.000    0.001   15.997   16.001
 cp_fm_redistribute_end              66 14.2    7.005   15.910    7.026   15.921
 cp_fm_diag_elpa_base                66 14.2    8.754   15.583    8.861   15.778
 calculate_dm_sparse                127  9.5    0.001    0.002   14.453   15.378
 make_images_data                  4862 15.5    0.082    0.112   13.225   15.033
 hybrid_alltoall_any               5031 16.4    0.897    7.916   12.317   15.016
 qs_ot_get_orbitals                 116 10.6    0.001    0.001   13.006   13.259
 multiply_cannon_metrocomm1       19448 15.5    0.083    0.093    5.228   12.319
 multiply_cannon_metrocomm4       17017 15.5    0.074    0.084    6.642   11.971
 grid_integrate_task_list           127 12.3   11.463   11.775   11.463   11.775
 multiply_cannon_metrocomm2       17017 15.5    0.100    0.108    3.749   10.901
 mp_sum_d                          4424 12.1    7.319   10.798    7.319   10.798
 cp_dbcsr_sm_fm_multiply             37  9.5    0.002    0.002   10.754   10.789
 pw_transfer                       1535 11.6    0.125    0.143    9.663   10.640
 fft_wrap_pw1pw2                   1281 12.7    0.013    0.014    9.416   10.398
 fft_wrap_pw1pw2_140                519 13.2    0.599    0.618    8.577    9.629
 density_rs2pw                      127  9.7    0.006    0.006    8.159    9.485
 dbcsr_dot_sd                      1303 12.0    1.687    1.758    6.620    9.285
 cp_dbcsr_sm_fm_multiply_core        37 10.5    0.000    0.000    8.586    9.001
 fft3d_ps                          1281 14.7    4.038    6.024    7.939    8.970
 dbcsr_make_dense_low              6216 15.5    0.066    0.082    7.340    7.934
 make_dense_data                   6216 16.5    7.162    7.741    7.239    7.816
 rs_pw_transfer                    1038 11.9    0.017    0.019    6.851    7.681
 -------------------------------------------------------------------------------

 The number of warnings for this run is : 1
 
 -------------------------------------------------------------------------------
  **** **** ******  **  PROGRAM ENDED AT                 2022-01-17 15:31:28.311
 ***** ** ***  *** **   PROGRAM RAN ON                                 nid002345
 **    ****   ******    PROGRAM RAN BY                                    hjudge
 ***** **    ** ** **   PROGRAM PROCESS ID                                242756
  **** **  *******  **  PROGRAM STOPPED IN /mnt/lustre/a2fs-work2/work/z19/z19/h
                                           judge/CUG/archer2/CPU/CP2K/H2O-512/2N
                                           ODES/128CPN/4THREADS
