 DBCSR| CPU Multiplication driver                                           BLAS
 DBCSR| Multrec recursion limit                                              512
 DBCSR| Multiplication stack size                                           1000
 DBCSR| Maximum elements for images                                    UNLIMITED
 DBCSR| Multiplicative factor virtual images                                   1
 DBCSR| Use multiplication densification                                       T
 DBCSR| Multiplication size stacks                                             3
 DBCSR| Use memory pool for CPU allocation                                     F
 DBCSR| Number of 3D layers                                               SINGLE
 DBCSR| Use MPI memory allocation                                              F
 DBCSR| Use RMA algorithm                                                      F
 DBCSR| Use Communication thread                                               T
 DBCSR| Communication thread load                                             60
 DBCSR| MPI: My node id                                                        0
 DBCSR| MPI: Number of nodes                                                 128
 DBCSR| OMP: Current number of threads                                         8
 DBCSR| OMP: Max number of threads                                             8
 DBCSR| Split modifier for TAS multiplication algorithm                  1.0E+00


  **** **** ******  **  PROGRAM STARTED AT               2022-01-17 17:01:52.714
 ***** ** ***  *** **   PROGRAM STARTED ON                             nid005035
 **    ****   ******    PROGRAM STARTED BY                                hjudge
 ***** **    ** ** **   PROGRAM PROCESS ID                                164144
  **** **  *******  **  PROGRAM STARTED IN /mnt/lustre/a2fs-work2/work/z19/z19/h
                                           judge/CUG/archer2/CPU/CP2K/H2O-512/8N
                                           ODES/128CPN/8THREADS

 CP2K| version string:                                          CP2K version 8.2
 CP2K| source code revision number:                                  git:310b7ab
 CP2K| cp2kflags: omp libint fftw3 libxc elpa parallel mpi3 scalapack plumed2   
 CP2K| is freely available from                            https://www.cp2k.org/
 CP2K| Program compiled at                          Thu Dec  2 10:30:45 GMT 2021
 CP2K| Program compiled on                                                  ln02
 CP2K| Program compiled for                                              ARCHER2
 CP2K| Data directory path         /work/y07/shared/apps/core/cp2k/cp2k-8.2/data
 CP2K| Input file name                                               H2O-512.inp

 GLOBAL| Force Environment number                                              1
 GLOBAL| Basis set file name                                      GTH_BASIS_SETS
 GLOBAL| Potential file name                                           POTENTIAL
 GLOBAL| MM Potential file name                                     MM_POTENTIAL
 GLOBAL| Coordinate file name                                      __STD_INPUT__
 GLOBAL| Method name                                                        CP2K
 GLOBAL| Project name                                                    H2O-512
 GLOBAL| Run type                                                             MD
 GLOBAL| FFT library                                                       FFTW3
 GLOBAL| Diagonalization library                                            ELPA
 GLOBAL| Minimum number of eigenvectors for ELPA usage                        16
 GLOBAL| Orthonormality check for eigenvectors                          DISABLED
 GLOBAL| Matrix multiplication library                                    SCALAP
 GLOBAL| All-to-all communication in single precision                          F
 GLOBAL| FFTs using library dependent lengths                                  F
 GLOBAL| Grid backend                                                       AUTO
 GLOBAL| Global print level                                                  LOW
 GLOBAL| MPI I/O enabled                                                       T
 GLOBAL| Total number of message passing processes                           128
 GLOBAL| Number of threads for this process                                    8
 GLOBAL| This output is from process                                           0
 GLOBAL| CPU model name                          AMD EPYC 7742 64-Core Processor
 GLOBAL| CPUID                                                              1002

 MEMORY| system memory details [Kb]
 MEMORY|                        rank 0           min           max       average
 MEMORY| MemTotal            263528084     263528084     263528088     263528086
 MEMORY| MemFree             251807892     251332816     252731172     251914806
 MEMORY| Buffers                 25152         17448         25152         20355
 MEMORY| Cached                 892712        573140       1431752       1036941
 MEMORY| Slab                  1627460       1552056       1627460       1594051
 MEMORY| SReclaimable           102068         80600        102068         86899
 MEMORY| MemLikelyFree       252827824     252827824     253402360     253059002


 GENERATE|  Preliminary Number of Bonds generated:                             0
 GENERATE|  Achieved consistency in connectivity generation.

 *******************************************************************************
 *******************************************************************************
 **                                                                           **
 **     #####                         ##              ##                      **
 **    ##   ##            ##          ##              ##                      **
 **   ##     ##                       ##            ######                    **
 **   ##     ##  ##   ##  ##   #####  ##  ##   ####   ##    #####    #####    **
 **   ##     ##  ##   ##  ##  ##      ## ##   ##      ##   ##   ##  ##   ##   **
 **   ##  ## ##  ##   ##  ##  ##      ####     ###    ##   ######   ######    **
 **    ##  ###   ##   ##  ##  ##      ## ##      ##   ##   ##       ##        **
 **     #######   #####   ##   #####  ##  ##  ####    ##    #####   ##        **
 **           ##                                                    ##        **
 **                                                                           **
 **                                                ... make the atoms dance   **
 **                                                                           **
 **            Copyright (C) by CP2K developers group (2000-2021)             **
 **                      J. Chem. Phys. 152, 194103 (2020)                    **
 **                                                                           **
 *******************************************************************************


 TOTAL NUMBERS AND MAXIMUM NUMBERS

  Total number of            - Atomic kinds:                                   2
                             - Atoms:                                       1536
                             - Shell sets:                                  3072
                             - Shells:                                      9216
                             - Primitive Cartesian functions:              10752
                             - Cartesian basis functions:                  21504
                             - Spherical basis functions:                  20480

  Maximum angular momentum of- Orbital basis functions:                        2
                             - Local part of the GTH pseudopotential:          2
                             - Non-local part of the GTH pseudopotential:      0


 SCF PARAMETERS         Density guess:                                    ATOMIC
                        --------------------------------------------------------
                        max_scf:                                              50
                        max_scf_history:                                       0
                        max_diis:                                              4
                        --------------------------------------------------------
                        eps_scf:                                        1.00E-05
                        eps_scf_history:                                0.00E+00
                        eps_diis:                                       1.00E-01
                        eps_eigval:                                     1.00E-05
                        --------------------------------------------------------
                        level_shift [a.u.]:                                 0.00
                        --------------------------------------------------------
                        No outer SCF

 MD_PAR| Molecular dynamics protocol (MD input parameters)
 MD_PAR| Ensemble type                                                       NVE
 MD_PAR| Number of time steps                                                 10
 MD_PAR| Time step [fs]                                                 0.500000
 MD_PAR| Temperature [K]                                              300.000000
 MD_PAR| Temperature tolerance [K]                                      0.000000
 MD_PAR| Print MD information every                                    1 step(s)
 MD_PAR| File type   Print frequency [steps]                          File names
 MD_PAR| Coordinates          1                                H2O-512-pos-1.xyz
 MD_PAR| Velocities           1                                H2O-512-vel-1.xyz
 MD_PAR| Energies             1                                   H2O-512-1.ener
 MD_PAR| Dump                20                                H2O-512-1.restart

 ROT| Rotational analysis information
 ROT| Principal axes and moments of inertia [a.u.]
 ROT|                           1                   2                   3
 ROT| Eigenvalues      6.12011925703E+09   6.17734003456E+09   6.32378668800E+09
 ROT|      x              0.229702356692      0.883899672739      0.407379670409
 ROT|      y              0.711719446246      0.132949289019     -0.689768016354
 ROT|      z              0.663846561462     -0.448381372362      0.598549820611
 ROT| Number of rotovibrational vectors                                        6

 DOF| Calculation of degrees of freedom
 DOF| Number of atoms                                                       1536
 DOF| Number of intramolecular constraints                                     0
 DOF| Number of intermolecular constraints                                     0
 DOF| Invariants (translations + rotations)                                    3
 DOF| Degrees of freedom                                                    4605

 DOF| Restraints information
 DOF| Number of intramolecular restraints                                      0
 DOF| Number of intermolecular restraints                                      0

 MD_VEL| Velocities initialization
 MD_VEL| Initial temperature [K]                                      300.000000
 MD_VEL| COM velocity             0.0000000000    -0.0000000000     0.0000000000

 Number of electrons:                                                       4096
 Number of occupied orbitals:                                               2048
 Number of molecular orbitals:                                              2048

 Number of orbital functions:                                              20480
 Number of independent orbital functions:                                  20480

 Extrapolation method: initial_guess


 SCF WAVEFUNCTION OPTIMIZATION

  ----------------------------------- OT ---------------------------------------
  Minimizer      : DIIS                : direct inversion
                                         in the iterative subspace
                                         using   7 DIIS vectors
                                         safer DIIS on
  Preconditioner : FULL_KINETIC        : inversion of T + eS
  Precond_solver : DEFAULT
  stepsize       :    0.15000000                  energy_gap     :    0.20000000
  eps_taylor     :   0.10000E-15                  max_taylor     :             4
  ----------------------------------- OT ---------------------------------------

  Step     Update method      Time    Convergence         Total energy    Change
  ------------------------------------------------------------------------------
     1 OT DIIS     0.15E+00    3.6     0.00467324     -8480.4728425690 -8.48E+03
     2 OT DIIS     0.15E+00    1.2     0.00318266     -8587.4488310143 -1.07E+02
     3 OT DIIS     0.15E+00    1.2     0.00347210     -8644.7931966768 -5.73E+01
     4 OT DIIS     0.15E+00    1.2     0.00204380     -8678.2157923835 -3.34E+01
     5 OT DIIS     0.15E+00    1.2     0.00148292     -8717.4624183879 -3.92E+01
     6 OT DIIS     0.15E+00    1.2     0.00119954     -8738.7795043572 -2.13E+01
     7 OT DIIS     0.15E+00    1.2     0.00099038     -8755.0185947301 -1.62E+01
     8 OT DIIS     0.15E+00    1.2     0.00079894     -8767.5347825454 -1.25E+01
     9 OT DIIS     0.15E+00    1.2     0.00061581     -8780.1862563835 -1.27E+01
    10 OT DIIS     0.15E+00    1.2     0.00048147     -8788.6147471043 -8.43E+00
    11 OT DIIS     0.15E+00    1.2     0.00038278     -8794.1215228889 -5.51E+00
    12 OT DIIS     0.15E+00    1.3     0.00031960     -8797.5363589594 -3.41E+00
    13 OT DIIS     0.15E+00    1.2     0.00026435     -8799.9344030908 -2.40E+00
    14 OT DIIS     0.15E+00    1.2     0.00023004     -8801.7089305035 -1.77E+00
    15 OT DIIS     0.15E+00    1.2     0.00019592     -8803.0697888564 -1.36E+00
    16 OT DIIS     0.15E+00    1.2     0.00016642     -8804.2000843411 -1.13E+00
    17 OT DIIS     0.15E+00    1.2     0.00014164     -8805.0506655806 -8.51E-01
    18 OT DIIS     0.15E+00    1.2     0.00012638     -8805.6725421207 -6.22E-01
    19 OT DIIS     0.15E+00    1.2     0.00010717     -8806.2171485645 -5.45E-01
    20 OT DIIS     0.15E+00    1.2     0.00009868     -8806.5290018963 -3.12E-01
    21 OT DIIS     0.15E+00    1.2     0.00008484     -8806.8772741195 -3.48E-01
    22 OT DIIS     0.15E+00    1.2     0.00007717     -8807.0943334427 -2.17E-01
    23 OT DIIS     0.15E+00    1.2     0.00006815     -8807.2974129499 -2.03E-01
    24 OT DIIS     0.15E+00    1.2     0.00006019     -8807.4529078233 -1.55E-01
    25 OT DIIS     0.15E+00    1.2     0.00005010     -8807.5989834234 -1.46E-01
    26 OT DIIS     0.15E+00    1.2     0.00004000     -8807.6989662228 -1.00E-01
    27 OT DIIS     0.15E+00    1.2     0.00003462     -8807.7827122401 -8.37E-02
    28 OT DIIS     0.15E+00    1.2     0.00003071     -8807.7824932500  2.19E-04
    29 OT DIIS     0.15E+00    1.2     0.00002690     -8807.8200993195 -3.76E-02
    30 OT DIIS     0.15E+00    1.2     0.00002500     -8807.8399634016 -1.99E-02
    31 OT DIIS     0.15E+00    1.2     0.00002395     -8807.8566460922 -1.67E-02
    32 OT DIIS     0.15E+00    1.2     0.00002328     -8807.8682689642 -1.16E-02
    33 OT DIIS     0.15E+00    1.2     0.00002304     -8807.8827275965 -1.45E-02
    34 OT DIIS     0.15E+00    1.2     0.00002300     -8807.8854890296 -2.76E-03
    35 OT SD       0.15E+00    1.2     0.00002301     -8807.8907467596 -5.26E-03
    36 OT SD       0.15E+00    1.2     0.00002308     -8807.8940817096 -3.33E-03
    37 OT SD       0.15E+00    1.2     0.00002318     -8807.8974407043 -3.36E-03
    38 OT SD       0.15E+00    1.2     0.00002329     -8807.9008284718 -3.39E-03
    39 OT SD       0.15E+00    1.2     0.00002341     -8807.9042491083 -3.42E-03
    40 OT SD       0.15E+00    1.2     0.00002354     -8807.9077063658 -3.46E-03
    41 OT SD       0.15E+00    1.2     0.00002369     -8807.9112037365 -3.50E-03
    42 OT SD       0.15E+00    1.2     0.00002384     -8807.9147444866 -3.54E-03
    43 OT SD       0.15E+00    1.2     0.00002400     -8807.9183316715 -3.59E-03
    44 OT SD       0.15E+00    1.2     0.00002417     -8807.9219681410 -3.64E-03
    45 OT DIIS     0.15E+00    1.2     0.00002435     -8807.9256565390 -3.69E-03
    46 OT DIIS     0.15E+00    1.2     0.00004964     -8807.9134289748  1.22E-02
    47 OT SD       0.15E+00    1.2     0.00005091     -8807.9142728562 -8.44E-04
    48 OT SD       0.15E+00    1.2     0.00004016     -8807.9285431396 -1.43E-02
    49 OT SD       0.15E+00    1.2     0.00003559     -8807.9380271106 -9.48E-03
    50 OT SD       0.15E+00    1.2     0.00003336     -8807.9457079150 -7.68E-03

  Leaving inner SCF loop after reaching    50 steps.


  Electronic density on regular grids:      -4096.0000074855       -0.0000074855
  Core density on regular grids:             4095.9999999927       -0.0000000073
  Total charge density on r-space grids:       -0.0000074928
  Total charge density g-space grids:          -0.0000074928

  Overlap energy of the core charge distribution:               0.00004500798551
  Self energy of the core charge distribution:             -22442.43995950839599
  Core Hamiltonian energy:                                   6603.78903290299786
  Hartree energy:                                            9161.23624566868784
  Exchange-correlation energy:                              -2130.53107198629095

  Total energy:                                             -8807.94570791501610

 *** WARNING in qs_scf.F:576 :: SCF run NOT converged ***


 ENERGY| Total FORCE_EVAL ( QS ) energy [a.u.]:            -8807.952572453170433

 MD_INI| MD initialization
 MD_INI| Potential energy [hartree]                          -0.880795257245E+04
 MD_INI| Kinetic energy [hartree]                             0.218747769838E+01
 MD_INI| Temperature [K]                                              300.000000
 MD_INI| Cell volume [bohr^3]                                 1.037187315243E+05
 MD_INI| Cell volume [ang^3]                                  1.536953010365E+04
 MD_INI| Cell lengths [bohr]      4.69842608E+01  4.69842608E+01  4.69842608E+01
 MD_INI| Cell lengths [ang]       2.48630000E+01  2.48630000E+01  2.48630000E+01
 MD_INI| Cell angles [deg]        9.00000000E+01  9.00000000E+01  9.00000000E+01

 Number of electrons:                                                       4096
 Number of occupied orbitals:                                               2048
 Number of molecular orbitals:                                              2048

 Number of orbital functions:                                              20480
 Number of independent orbital functions:                                  20480

 Extrapolation method: PS Nth order
 Extrapolation order:  0


 SCF WAVEFUNCTION OPTIMIZATION

  ----------------------------------- OT ---------------------------------------
  Minimizer      : DIIS                : direct inversion
                                         in the iterative subspace
                                         using   7 DIIS vectors
                                         safer DIIS on
  Preconditioner : FULL_KINETIC        : inversion of T + eS
  Precond_solver : DEFAULT
  stepsize       :    0.15000000                  energy_gap     :    0.20000000
  eps_taylor     :   0.10000E-15                  max_taylor     :             4
  ----------------------------------- OT ---------------------------------------

  Step     Update method      Time    Convergence         Total energy    Change
  ------------------------------------------------------------------------------
     1 OT DIIS     0.15E+00    3.2     0.00010167     -8807.9546211976 -8.81E+03
     2 OT DIIS     0.15E+00    0.9     0.00007399     -8808.0093713730 -5.48E-02
     3 OT DIIS     0.15E+00    0.9     0.00005493     -8808.0647619957 -5.54E-02
     4 OT DIIS     0.15E+00    0.9     0.00004934     -8808.1021796295 -3.74E-02
     5 OT DIIS     0.15E+00    1.2     0.00004590     -8808.1451133771 -4.29E-02
     6 OT DIIS     0.15E+00    1.2     0.00004348     -8808.1873124435 -4.22E-02
     7 OT DIIS     0.15E+00    1.2     0.00003910     -8808.2476902789 -6.04E-02
     8 OT DIIS     0.15E+00    1.2     0.00002828     -8808.3274813265 -7.98E-02
     9 OT DIIS     0.15E+00    1.2     0.00002025     -8808.3586910179 -3.12E-02
    10 OT DIIS     0.15E+00    1.2     0.00001287     -8808.3785431309 -1.99E-02
    11 OT DIIS     0.15E+00    1.2     0.00001026     -8808.3792692790 -7.26E-04
    12 OT DIIS     0.15E+00    1.2     0.00000704     -8808.3828070457 -3.54E-03

  *** SCF run converged in    12 steps ***


  Electronic density on regular grids:      -4096.0000079114       -0.0000079114
  Core density on regular grids:             4095.9999999916       -0.0000000084
  Total charge density on r-space grids:       -0.0000079198
  Total charge density g-space grids:          -0.0000079198

  Overlap energy of the core charge distribution:               0.00004378132402
  Self energy of the core charge distribution:             -22442.43995950839599
  Core Hamiltonian energy:                                   6601.18541522492160
  Hartree energy:                                            9162.93986631033113
  Exchange-correlation energy:                              -2130.06817285390707

  Total energy:                                             -8808.38280704572571

 ENERGY| Total FORCE_EVAL ( QS ) energy [a.u.]:            -8808.383483474706736

 MD| ***************************************************************************
 MD| Step number                                                               1
 MD| Time [fs]                                                          0.500000
 MD| Conserved quantity [hartree]                            -0.880615757255E+04
 MD| ---------------------------------------------------------------------------
 MD|                                          Instantaneous             Averages
 MD| CPU time per MD step [s]                     83.163899            83.163899
 MD| Energy drift per atom [K]          -0.806865474921E+02   0.000000000000E+00
 MD| Potential energy [hartree]         -0.880838348347E+04  -0.880838348347E+04
 MD| Kinetic energy [hartree]            0.222591092674E+01   0.222591092674E+01
 MD| Temperature [K]                             305.270896           305.270896
 MD| ***************************************************************************

 Number of electrons:                                                       4096
 Number of occupied orbitals:                                               2048
 Number of molecular orbitals:                                              2048

 Number of orbital functions:                                              20480
 Number of independent orbital functions:                                  20480

 Extrapolation method: PS Nth order
 Extrapolation order:  1


 SCF WAVEFUNCTION OPTIMIZATION

  ----------------------------------- OT ---------------------------------------
  Minimizer      : DIIS                : direct inversion
                                         in the iterative subspace
                                         using   7 DIIS vectors
                                         safer DIIS on
  Preconditioner : FULL_KINETIC        : inversion of T + eS
  Precond_solver : DEFAULT
  stepsize       :    0.15000000                  energy_gap     :    0.20000000
  eps_taylor     :   0.10000E-15                  max_taylor     :             4
  ----------------------------------- OT ---------------------------------------

  Step     Update method      Time    Convergence         Total energy    Change
  ------------------------------------------------------------------------------
     1 OT DIIS     0.15E+00    3.2     0.00008001     -8808.4313078035 -8.81E+03
     2 OT DIIS     0.15E+00    0.9     0.00005271     -8808.4637433487 -3.24E-02
     3 OT DIIS     0.15E+00    1.0     0.00003321     -8808.4886492503 -2.49E-02
     4 OT DIIS     0.15E+00    0.9     0.00002251     -8808.5029450322 -1.43E-02
     5 OT DIIS     0.15E+00    0.9     0.00001407     -8808.5119288118 -8.98E-03
     6 OT DIIS     0.15E+00    0.9     0.00000837     -8808.5159226600 -3.99E-03

  *** SCF run converged in     6 steps ***


  Electronic density on regular grids:      -4096.0000084065       -0.0000084065
  Core density on regular grids:             4095.9999999941       -0.0000000059
  Total charge density on r-space grids:       -0.0000084124
  Total charge density g-space grids:          -0.0000084124

  Overlap energy of the core charge distribution:               0.00003948980089
  Self energy of the core charge distribution:             -22442.43995950839599
  Core Hamiltonian energy:                                   6592.75633406796169
  Hartree energy:                                            9168.97934826584969
  Exchange-correlation energy:                              -2127.81168497520184

  Total energy:                                             -8808.51592265998443

 ENERGY| Total FORCE_EVAL ( QS ) energy [a.u.]:            -8808.517234303737496

 MD| ***************************************************************************
 MD| Step number                                                               2
 MD| Time [fs]                                                          1.000000
 MD| Conserved quantity [hartree]                            -0.880616181857E+04
 MD| ---------------------------------------------------------------------------
 MD|                                          Instantaneous             Averages
 MD| CPU time per MD step [s]                      9.176802            46.170351
 MD| Energy drift per atom [K]          -0.815594556400E+02  -0.407797278200E+02
 MD| Potential energy [hartree]         -0.880851723430E+04  -0.880845035889E+04
 MD| Kinetic energy [hartree]            0.235541573120E+01   0.229066332897E+01
 MD| Temperature [K]                             323.031736           314.151316
 MD| ***************************************************************************

 Number of electrons:                                                       4096
 Number of occupied orbitals:                                               2048
 Number of molecular orbitals:                                              2048

 Number of orbital functions:                                              20480
 Number of independent orbital functions:                                  20480

 Extrapolation method: PS Nth order
 Extrapolation order:  2


 SCF WAVEFUNCTION OPTIMIZATION

  ----------------------------------- OT ---------------------------------------
  Minimizer      : DIIS                : direct inversion
                                         in the iterative subspace
                                         using   7 DIIS vectors
                                         safer DIIS on
  Preconditioner : FULL_KINETIC        : inversion of T + eS
  Precond_solver : DEFAULT
  stepsize       :    0.15000000                  energy_gap     :    0.20000000
  eps_taylor     :   0.10000E-15                  max_taylor     :             4
  ----------------------------------- OT ---------------------------------------

  Step     Update method      Time    Convergence         Total energy    Change
  ------------------------------------------------------------------------------
     1 OT DIIS     0.15E+00    3.2     0.00008986     -8808.3717634182 -8.81E+03
     2 OT DIIS     0.15E+00    0.9     0.00007426     -8808.4174473126 -4.57E-02
     3 OT DIIS     0.15E+00    0.9     0.00005875     -8808.4861985693 -6.88E-02
     4 OT DIIS     0.15E+00    0.9     0.00004979     -8808.5436777133 -5.75E-02
     5 OT DIIS     0.15E+00    0.9     0.00004006     -8808.6033815362 -5.97E-02
     6 OT DIIS     0.15E+00    1.2     0.00002840     -8808.6545526043 -5.12E-02
     7 OT DIIS     0.15E+00    1.2     0.00001854     -8808.6820972832 -2.75E-02
     8 OT DIIS     0.15E+00    1.2     0.00001252     -8808.6920684822 -9.97E-03
     9 OT DIIS     0.15E+00    1.2     0.00000891     -8808.6959103126 -3.84E-03

  *** SCF run converged in     9 steps ***


  Electronic density on regular grids:      -4096.0000081507       -0.0000081507
  Core density on regular grids:             4095.9999999985       -0.0000000015
  Total charge density on r-space grids:       -0.0000081522
  Total charge density g-space grids:          -0.0000081522

  Overlap energy of the core charge distribution:               0.00003222727838
  Self energy of the core charge distribution:             -22442.43995950839599
  Core Hamiltonian energy:                                   6579.97333311340481
  Hartree energy:                                            9178.11110241353526
  Exchange-correlation energy:                              -2124.34041855846090

  Total energy:                                             -8808.69591031263735

 ENERGY| Total FORCE_EVAL ( QS ) energy [a.u.]:            -8808.697758190379318

 MD| ***************************************************************************
 MD| Step number                                                               3
 MD| Time [fs]                                                          1.500000
 MD| Conserved quantity [hartree]                            -0.880616479822E+04
 MD| ---------------------------------------------------------------------------
 MD|                                          Instantaneous             Averages
 MD| CPU time per MD step [s]                     13.265400            35.202034
 MD| Energy drift per atom [K]          -0.821720196042E+02  -0.545771584148E+02
 MD| Potential energy [hartree]         -0.880869775819E+04  -0.880853282532E+04
 MD| Kinetic energy [hartree]            0.253295996683E+01   0.237142887492E+01
 MD| Temperature [K]                             347.380908           325.227847
 MD| ***************************************************************************

 Number of electrons:                                                       4096
 Number of occupied orbitals:                                               2048
 Number of molecular orbitals:                                              2048

 Number of orbital functions:                                              20480
 Number of independent orbital functions:                                  20480

 Extrapolation method: PS Nth order
 Extrapolation order:  3


 SCF WAVEFUNCTION OPTIMIZATION

  ----------------------------------- OT ---------------------------------------
  Minimizer      : DIIS                : direct inversion
                                         in the iterative subspace
                                         using   7 DIIS vectors
                                         safer DIIS on
  Preconditioner : FULL_KINETIC        : inversion of T + eS
  Precond_solver : DEFAULT
  stepsize       :    0.15000000                  energy_gap     :    0.20000000
  eps_taylor     :   0.10000E-15                  max_taylor     :             4
  ----------------------------------- OT ---------------------------------------

  Step     Update method      Time    Convergence         Total energy    Change
  ------------------------------------------------------------------------------
     1 OT DIIS     0.15E+00    3.2     0.00008300     -8808.7601002890 -8.81E+03
     2 OT DIIS     0.15E+00    0.9     0.00005686     -8808.7956181291 -3.55E-02
     3 OT DIIS     0.15E+00    0.9     0.00003614     -8808.8258130418 -3.02E-02
     4 OT DIIS     0.15E+00    0.9     0.00002270     -8808.8440339848 -1.82E-02
     5 OT DIIS     0.15E+00    0.9     0.00001489     -8808.8523327648 -8.30E-03
     6 OT DIIS     0.15E+00    0.9     0.00000969     -8808.8563576444 -4.02E-03

  *** SCF run converged in     6 steps ***


  Electronic density on regular grids:      -4096.0000085822       -0.0000085822
  Core density on regular grids:             4096.0000000009        0.0000000009
  Total charge density on r-space grids:       -0.0000085814
  Total charge density g-space grids:          -0.0000085814

  Overlap energy of the core charge distribution:               0.00002346615487
  Self energy of the core charge distribution:             -22442.43995950839599
  Core Hamiltonian energy:                                   6564.27158905615579
  Hartree energy:                                            9189.38285880976764
  Exchange-correlation energy:                              -2120.07086946808795

  Total energy:                                             -8808.85635764440303

 ENERGY| Total FORCE_EVAL ( QS ) energy [a.u.]:            -8808.858123769217855

 MD| ***************************************************************************
 MD| Step number                                                               4
 MD| Time [fs]                                                          2.000000
 MD| Conserved quantity [hartree]                            -0.880616980130E+04
 MD| ---------------------------------------------------------------------------
 MD|                                          Instantaneous             Averages
 MD| CPU time per MD step [s]                      9.765624            28.842931
 MD| Energy drift per atom [K]          -0.832005640331E+02  -0.617330098193E+02
 MD| Potential energy [hartree]         -0.880885812377E+04  -0.880861414993E+04
 MD| Kinetic energy [hartree]            0.268832247068E+01   0.245065227386E+01
 MD| Temperature [K]                             368.687983           336.092881
 MD| ***************************************************************************

 Number of electrons:                                                       4096
 Number of occupied orbitals:                                               2048
 Number of molecular orbitals:                                              2048

 Number of orbital functions:                                              20480
 Number of independent orbital functions:                                  20480

 Extrapolation method: PS Nth order
 Extrapolation order:  3


 SCF WAVEFUNCTION OPTIMIZATION

  ----------------------------------- OT ---------------------------------------
  Minimizer      : DIIS                : direct inversion
                                         in the iterative subspace
                                         using   7 DIIS vectors
                                         safer DIIS on
  Preconditioner : FULL_KINETIC        : inversion of T + eS
  Precond_solver : DEFAULT
  stepsize       :    0.15000000                  energy_gap     :    0.20000000
  eps_taylor     :   0.10000E-15                  max_taylor     :             4
  ----------------------------------- OT ---------------------------------------

  Step     Update method      Time    Convergence         Total energy    Change
  ------------------------------------------------------------------------------
     1 OT DIIS     0.15E+00    3.2     0.00005398     -8808.8521914544 -8.81E+03
     2 OT DIIS     0.15E+00    0.9     0.00004360     -8808.8685916390 -1.64E-02
     3 OT DIIS     0.15E+00    1.2     0.00002876     -8808.8948199134 -2.62E-02
     4 OT DIIS     0.15E+00    1.2     0.00002104     -8808.9082120061 -1.34E-02
     5 OT DIIS     0.15E+00    1.2     0.00001317     -8808.9185194527 -1.03E-02
     6 OT DIIS     0.15E+00    1.2     0.00000843     -8808.9223714868 -3.85E-03

  *** SCF run converged in     6 steps ***


  Electronic density on regular grids:      -4096.0000071800       -0.0000071800
  Core density on regular grids:             4095.9999999999       -0.0000000001
  Total charge density on r-space grids:       -0.0000071801
  Total charge density g-space grids:          -0.0000071801

  Overlap energy of the core charge distribution:               0.00001548085009
  Self energy of the core charge distribution:             -22442.43995950839599
  Core Hamiltonian energy:                                   6547.40962325805776
  Hartree energy:                                            9201.58656214915027
  Exchange-correlation energy:                              -2115.47861286643274

  Total energy:                                             -8808.92237148676941

 ENERGY| Total FORCE_EVAL ( QS ) energy [a.u.]:            -8808.923934646933048

 MD| ***************************************************************************
 MD| Step number                                                               5
 MD| Time [fs]                                                          2.500000
 MD| Conserved quantity [hartree]                            -0.880617228928E+04
 MD| ---------------------------------------------------------------------------
 MD|                                          Instantaneous             Averages
 MD| CPU time per MD step [s]                     10.700106            25.214366
 MD| Energy drift per atom [K]          -0.837120490663E+02  -0.661288176687E+02
 MD| Potential energy [hartree]         -0.880892393465E+04  -0.880867610688E+04
 MD| Kinetic energy [hartree]            0.275164536838E+01   0.251085089277E+01
 MD| Temperature [K]                             377.372355           344.348776
 MD| ***************************************************************************

 Number of electrons:                                                       4096
 Number of occupied orbitals:                                               2048
 Number of molecular orbitals:                                              2048

 Number of orbital functions:                                              20480
 Number of independent orbital functions:                                  20480

 Extrapolation method: PS Nth order
 Extrapolation order:  3


 SCF WAVEFUNCTION OPTIMIZATION

  ----------------------------------- OT ---------------------------------------
  Minimizer      : DIIS                : direct inversion
                                         in the iterative subspace
                                         using   7 DIIS vectors
                                         safer DIIS on
  Preconditioner : FULL_KINETIC        : inversion of T + eS
  Precond_solver : DEFAULT
  stepsize       :    0.15000000                  energy_gap     :    0.20000000
  eps_taylor     :   0.10000E-15                  max_taylor     :             4
  ----------------------------------- OT ---------------------------------------

  Step     Update method      Time    Convergence         Total energy    Change
  ------------------------------------------------------------------------------
     1 OT DIIS     0.15E+00    3.2     0.00004459     -8808.8152217880 -8.81E+03
     2 OT DIIS     0.15E+00    0.9     0.00003657     -8808.8265179918 -1.13E-02
     3 OT DIIS     0.15E+00    0.9     0.00002088     -8808.8466703988 -2.02E-02
     4 OT DIIS     0.15E+00    1.0     0.00001309     -8808.8539215056 -7.25E-03
     5 OT DIIS     0.15E+00    1.0     0.00000884     -8808.8567199737 -2.80E-03

  *** SCF run converged in     5 steps ***


  Electronic density on regular grids:      -4096.0000062625       -0.0000062625
  Core density on regular grids:             4095.9999999983       -0.0000000017
  Total charge density on r-space grids:       -0.0000062642
  Total charge density g-space grids:          -0.0000062642

  Overlap energy of the core charge distribution:               0.00000971626186
  Self energy of the core charge distribution:             -22442.43995950839599
  Core Hamiltonian energy:                                   6531.17274090203318
  Hartree energy:                                            9213.44167645306516
  Exchange-correlation energy:                              -2111.03118753663011

  Total energy:                                             -8808.85671997366444

 ENERGY| Total FORCE_EVAL ( QS ) energy [a.u.]:            -8808.858095957490150

 MD| ***************************************************************************
 MD| Step number                                                               6
 MD| Time [fs]                                                          3.000000
 MD| Conserved quantity [hartree]                            -0.880617011313E+04
 MD| ---------------------------------------------------------------------------
 MD|                                          Instantaneous             Averages
 MD| CPU time per MD step [s]                      8.829359            22.483532
 MD| Energy drift per atom [K]          -0.832646707981E+02  -0.689847931903E+02
 MD| Potential energy [hartree]         -0.880885809596E+04  -0.880870643839E+04
 MD| Kinetic energy [hartree]            0.268798282901E+01   0.254037288214E+01
 MD| Temperature [K]                             368.641403           348.397547
 MD| ***************************************************************************

 Number of electrons:                                                       4096
 Number of occupied orbitals:                                               2048
 Number of molecular orbitals:                                              2048

 Number of orbital functions:                                              20480
 Number of independent orbital functions:                                  20480

 Extrapolation method: PS Nth order
 Extrapolation order:  3


 SCF WAVEFUNCTION OPTIMIZATION

  ----------------------------------- OT ---------------------------------------
  Minimizer      : DIIS                : direct inversion
                                         in the iterative subspace
                                         using   7 DIIS vectors
                                         safer DIIS on
  Preconditioner : FULL_KINETIC        : inversion of T + eS
  Precond_solver : DEFAULT
  stepsize       :    0.15000000                  energy_gap     :    0.20000000
  eps_taylor     :   0.10000E-15                  max_taylor     :             4
  ----------------------------------- OT ---------------------------------------

  Step     Update method      Time    Convergence         Total energy    Change
  ------------------------------------------------------------------------------
     1 OT DIIS     0.15E+00    3.2     0.00004551     -8808.6384769823 -8.81E+03
     2 OT DIIS     0.15E+00    1.0     0.00003729     -8808.6502438511 -1.18E-02
     3 OT DIIS     0.15E+00    1.0     0.00002023     -8808.6710752361 -2.08E-02
     4 OT DIIS     0.15E+00    0.9     0.00001308     -8808.6771447633 -6.07E-03
     5 OT DIIS     0.15E+00    0.9     0.00000755     -8808.6802140102 -3.07E-03

  *** SCF run converged in     5 steps ***


  Electronic density on regular grids:      -4096.0000050933       -0.0000050933
  Core density on regular grids:             4095.9999999989       -0.0000000011
  Total charge density on r-space grids:       -0.0000050945
  Total charge density g-space grids:          -0.0000050945

  Overlap energy of the core charge distribution:               0.00000622092326
  Self energy of the core charge distribution:             -22442.43995950839599
  Core Hamiltonian energy:                                   6517.03118134173747
  Hartree energy:                                            9223.86272600188022
  Exchange-correlation energy:                              -2107.13416806636224

  Total energy:                                             -8808.68021401021906

 ENERGY| Total FORCE_EVAL ( QS ) energy [a.u.]:            -8808.681147567498556

 MD| ***************************************************************************
 MD| Step number                                                               7
 MD| Time [fs]                                                          3.500000
 MD| Conserved quantity [hartree]                            -0.880616595728E+04
 MD| ---------------------------------------------------------------------------
 MD|                                          Instantaneous             Averages
 MD| CPU time per MD step [s]                      8.865004            20.538028
 MD| Energy drift per atom [K]          -0.824103013525E+02  -0.709027229277E+02
 MD| Potential energy [hartree]         -0.880868114757E+04  -0.880870282542E+04
 MD| Kinetic energy [hartree]            0.251519028711E+01   0.253677536856E+01
 MD| Temperature [K]                             344.943899           347.904169
 MD| ***************************************************************************

 Number of electrons:                                                       4096
 Number of occupied orbitals:                                               2048
 Number of molecular orbitals:                                              2048

 Number of orbital functions:                                              20480
 Number of independent orbital functions:                                  20480

 Extrapolation method: PS Nth order
 Extrapolation order:  3


 SCF WAVEFUNCTION OPTIMIZATION

  ----------------------------------- OT ---------------------------------------
  Minimizer      : DIIS                : direct inversion
                                         in the iterative subspace
                                         using   7 DIIS vectors
                                         safer DIIS on
  Preconditioner : FULL_KINETIC        : inversion of T + eS
  Precond_solver : DEFAULT
  stepsize       :    0.15000000                  energy_gap     :    0.20000000
  eps_taylor     :   0.10000E-15                  max_taylor     :             4
  ----------------------------------- OT ---------------------------------------

  Step     Update method      Time    Convergence         Total energy    Change
  ------------------------------------------------------------------------------
     1 OT DIIS     0.15E+00    3.2     0.00004639     -8808.4083528755 -8.81E+03
     2 OT DIIS     0.15E+00    0.9     0.00003771     -8808.4205212542 -1.22E-02
     3 OT DIIS     0.15E+00    0.9     0.00002094     -8808.4409407487 -2.04E-02
     4 OT DIIS     0.15E+00    0.9     0.00001360     -8808.4479497209 -7.01E-03
     5 OT DIIS     0.15E+00    0.9     0.00001073     -8808.4504245686 -2.47E-03
     6 OT DIIS     0.15E+00    0.9     0.00000737     -8808.4530065576 -2.58E-03

  *** SCF run converged in     6 steps ***


  Electronic density on regular grids:      -4096.0000038468       -0.0000038468
  Core density on regular grids:             4096.0000000008        0.0000000008
  Total charge density on r-space grids:       -0.0000038459
  Total charge density g-space grids:          -0.0000038459

  Overlap energy of the core charge distribution:               0.00000436187240
  Self energy of the core charge distribution:             -22442.43995950839599
  Core Hamiltonian energy:                                   6506.06509174119583
  Hartree energy:                                            9232.01158728266091
  Exchange-correlation energy:                              -2104.08973043496690

  Total energy:                                             -8808.45300655763640

 ENERGY| Total FORCE_EVAL ( QS ) energy [a.u.]:            -8808.454571202755687

 MD| ***************************************************************************
 MD| Step number                                                               8
 MD| Time [fs]                                                          4.000000
 MD| Conserved quantity [hartree]                            -0.880616115038E+04
 MD| ---------------------------------------------------------------------------
 MD|                                          Instantaneous             Averages
 MD| CPU time per MD step [s]                      9.791648            19.194730
 MD| Energy drift per atom [K]          -0.814220860659E+02  -0.722176433200E+02
 MD| Potential energy [hartree]         -0.880845457120E+04  -0.880867179364E+04
 MD| Kinetic energy [hartree]            0.229342082719E+01   0.250635605089E+01
 MD| Temperature [K]                             314.529492           343.732334
 MD| ***************************************************************************

 Number of electrons:                                                       4096
 Number of occupied orbitals:                                               2048
 Number of molecular orbitals:                                              2048

 Number of orbital functions:                                              20480
 Number of independent orbital functions:                                  20480

 Extrapolation method: PS Nth order
 Extrapolation order:  3


 SCF WAVEFUNCTION OPTIMIZATION

  ----------------------------------- OT ---------------------------------------
  Minimizer      : DIIS                : direct inversion
                                         in the iterative subspace
                                         using   7 DIIS vectors
                                         safer DIIS on
  Preconditioner : FULL_KINETIC        : inversion of T + eS
  Precond_solver : DEFAULT
  stepsize       :    0.15000000                  energy_gap     :    0.20000000
  eps_taylor     :   0.10000E-15                  max_taylor     :             4
  ----------------------------------- OT ---------------------------------------

  Step     Update method      Time    Convergence         Total energy    Change
  ------------------------------------------------------------------------------
     1 OT DIIS     0.15E+00    3.2     0.00004050     -8808.2146974883 -8.81E+03
     2 OT DIIS     0.15E+00    0.9     0.00003407     -8808.2241590176 -9.46E-03
     3 OT DIIS     0.15E+00    0.9     0.00001718     -8808.2450179560 -2.09E-02
     4 OT DIIS     0.15E+00    0.9     0.00001245     -8808.2495172444 -4.50E-03
     5 OT DIIS     0.15E+00    0.9     0.00000891     -8808.2522161236 -2.70E-03

  *** SCF run converged in     5 steps ***


  Electronic density on regular grids:      -4096.0000022243       -0.0000022243
  Core density on regular grids:             4096.0000000016        0.0000000016
  Total charge density on r-space grids:       -0.0000022227
  Total charge density g-space grids:          -0.0000022227

  Overlap energy of the core charge distribution:               0.00000353692305
  Self energy of the core charge distribution:             -22442.43995950839599
  Core Hamiltonian energy:                                   6498.75942698190283
  Hartree energy:                                            9237.49748386759893
  Exchange-correlation energy:                              -2102.06917100164810

  Total energy:                                             -8808.25221612361929

 ENERGY| Total FORCE_EVAL ( QS ) energy [a.u.]:            -8808.253873596318954

 MD| ***************************************************************************
 MD| Step number                                                               9
 MD| Time [fs]                                                          4.500000
 MD| Conserved quantity [hartree]                            -0.880615635528E+04
 MD| ---------------------------------------------------------------------------
 MD|                                          Instantaneous             Averages
 MD| CPU time per MD step [s]                      8.810995            18.040982
 MD| Energy drift per atom [K]          -0.804362984834E+02  -0.731308272271E+02
 MD| Potential energy [hartree]         -0.880825387360E+04  -0.880862535808E+04
 MD| Kinetic energy [hartree]            0.209751831668E+01   0.246092963598E+01
 MD| Temperature [K]                             287.662588           337.502362
 MD| ***************************************************************************

 Number of electrons:                                                       4096
 Number of occupied orbitals:                                               2048
 Number of molecular orbitals:                                              2048

 Number of orbital functions:                                              20480
 Number of independent orbital functions:                                  20480

 Extrapolation method: PS Nth order
 Extrapolation order:  3


 SCF WAVEFUNCTION OPTIMIZATION

  ----------------------------------- OT ---------------------------------------
  Minimizer      : DIIS                : direct inversion
                                         in the iterative subspace
                                         using   7 DIIS vectors
                                         safer DIIS on
  Preconditioner : FULL_KINETIC        : inversion of T + eS
  Precond_solver : DEFAULT
  stepsize       :    0.15000000                  energy_gap     :    0.20000000
  eps_taylor     :   0.10000E-15                  max_taylor     :             4
  ----------------------------------- OT ---------------------------------------

  Step     Update method      Time    Convergence         Total energy    Change
  ------------------------------------------------------------------------------
     1 OT DIIS     0.15E+00    3.2     0.00004012     -8808.1037290517 -8.81E+03
     2 OT DIIS     0.15E+00    0.9     0.00003342     -8808.1129260033 -9.20E-03
     3 OT DIIS     0.15E+00    0.9     0.00002048     -8808.1296917535 -1.68E-02
     4 OT DIIS     0.15E+00    0.9     0.00001263     -8808.1379699868 -8.28E-03
     5 OT DIIS     0.15E+00    1.0     0.00001017     -8808.1402112842 -2.24E-03
     6 OT DIIS     0.15E+00    0.9     0.00000715     -8808.1425469313 -2.34E-03

  *** SCF run converged in     6 steps ***


  Electronic density on regular grids:      -4096.0000006753       -0.0000006753
  Core density on regular grids:             4096.0000000007        0.0000000007
  Total charge density on r-space grids:       -0.0000006745
  Total charge density g-space grids:          -0.0000006745

  Overlap energy of the core charge distribution:               0.00000340787719
  Self energy of the core charge distribution:             -22442.43995950839599
  Core Hamiltonian energy:                                   6495.52246765556265
  Hartree energy:                                            9239.94935613188136
  Exchange-correlation energy:                              -2101.17441461817589

  Total energy:                                             -8808.14254693125076

 ENERGY| Total FORCE_EVAL ( QS ) energy [a.u.]:            -8808.143947988508444

 MD| ***************************************************************************
 MD| Step number                                                              10
 MD| Time [fs]                                                          5.000000
 MD| Conserved quantity [hartree]                            -0.880615520784E+04
 MD| ---------------------------------------------------------------------------
 MD|                                          Instantaneous             Averages
 MD| CPU time per MD step [s]                      9.777910            17.214675
 MD| Energy drift per atom [K]          -0.802004058233E+02  -0.738377850867E+02
 MD| Potential energy [hartree]         -0.880814394799E+04  -0.880857721707E+04
 MD| Kinetic energy [hartree]            0.198874014464E+01   0.241371068685E+01
 MD| Temperature [K]                             272.744286           331.026555
 MD| ***************************************************************************

 -------------------------------------------------------------------------------
 -                                                                             -
 -                                DBCSR STATISTICS                             -
 -                                                                             -
 -------------------------------------------------------------------------------
 COUNTER                                    TOTAL       BLAS       SMM       ACC
 flops     9 x    32 x    32          13287555072     100.0%      0.0%      0.0%
 flops    22 x    32 x    32          16240345088     100.0%      0.0%      0.0%
 flops   289 x   128 x   128        1352763703296     100.0%      0.0%      0.0%
 flops    64 x   128 x   128        1356135923712     100.0%      0.0%      0.0%
 flops   311 x   128 x   128        1455742255104     100.0%      0.0%      0.0%
 flops   312 x   128 x   128        1460423098368     100.0%      0.0%      0.0%
 flops   329 x   128 x   128        1539997433856     100.0%      0.0%      0.0%
 flops   178 x   128 x   128        1666380201984     100.0%      0.0%      0.0%
 flops   222 x   128 x   128        2078294409216     100.0%      0.0%      0.0%
 flops   298 x   128 x   128        2789782585344     100.0%      0.0%      0.0%
 flops   307 x   128 x   128        2874037764096     100.0%      0.0%      0.0%
 flops   289 x   128 x  1280        3078870794240     100.0%      0.0%      0.0%
 flops   338 x   128 x   128        3164250046464     100.0%      0.0%      0.0%
 flops   342 x   128 x   128        3201696792576     100.0%      0.0%      0.0%
 flops   311 x   128 x  1280        3313248501760     100.0%      0.0%      0.0%
 flops   312 x   128 x  1280        3323902033920     100.0%      0.0%      0.0%
 flops   360 x   128 x   128        3370207150080     100.0%      0.0%      0.0%
 flops   329 x   128 x  1280        3505012080640     100.0%      0.0%      0.0%
 flops   200 x   128 x   128        3744674611200     100.0%      0.0%      0.0%
 flops   178 x   128 x  1280        3792657448960     100.0%      0.0%      0.0%
 flops   320 x   128 x   128        4493609533440     100.0%      0.0%      0.0%
 flops   222 x   128 x  1280        4730168279040     100.0%      0.0%      0.0%
 flops     9 x     9 x   128        5648350040064     100.0%      0.0%      0.0%
 flops   298 x   128 x  1280        6349505167360     100.0%      0.0%      0.0%
 flops   307 x   128 x  1280        6541268746240     100.0%      0.0%      0.0%
 flops   338 x   128 x  1280        7201787740160     100.0%      0.0%      0.0%
 flops   342 x   128 x  1280        7287015997440     100.0%      0.0%      0.0%
 flops    64 x   128 x  1280        7296075694080     100.0%      0.0%      0.0%
 flops   360 x   128 x  1280        7670543155200     100.0%      0.0%      0.0%
 flops     9 x    22 x   128        7855827369984     100.0%      0.0%      0.0%
 flops    22 x     9 x   128        7866447519744     100.0%      0.0%      0.0%
 flops   200 x   128 x  1280        8522825728000     100.0%      0.0%      0.0%
 flops   320 x   128 x  1280       10227390873600     100.0%      0.0%      0.0%
 flops    22 x    22 x   128       11004752822272     100.0%      0.0%      0.0%
 flops   351 x   128 x   128       11500831899648     100.0%      0.0%      0.0%
 flops    32 x   128 x   128       13109313929216     100.0%      0.0%      0.0%
 flops     9 x    32 x     9       23722505551872     100.0%      0.0%      0.0%
 flops   351 x   128 x  1280       26175728517120     100.0%      0.0%      0.0%
 flops    22 x    32 x     9       33153656684544     100.0%      0.0%      0.0%
 flops     9 x    32 x    22       33153656684544     100.0%      0.0%      0.0%
 flops    22 x    32 x    22       46115724689408     100.0%      0.0%      0.0%
 flops    32 x   128 x  1280       70528731709440     100.0%      0.0%      0.0%
 flops inhomo. stacks             179504198713344     100.0%      0.0%      0.0%
 flops total                       586.757522E+12     100.0%      0.0%      0.0%
 flops max/rank                      4.646570E+12     100.0%      0.0%      0.0%
 matmuls inhomo. stacks                   5611520     100.0%      0.0%      0.0%
 matmuls total                        12001356672     100.0%      0.0%      0.0%
 number of processed stacks              61762336     100.0%      0.0%      0.0%
 average stack size                                   194.3       0.0       0.0
 marketing flops                     1.147134E+15
 -------------------------------------------------------------------------------
 # multiplications                           2431
 max memory usage/rank             767.143936E+06
 # max total images/rank                        2
 # max 3D layers                                1
 # MPI messages exchanged                 9023872
 MPI messages size (bytes):
  total size                        19.341863E+12
  min size                           0.000000E+00
  max size                          26.214400E+06
  average size                       2.143410E+06
 MPI breakdown and total messages size (bytes):
             size <=      128               59312                        0
       128 < size <=     8192                   0                        0
      8192 < size <=    32768                1232                 40370176
     32768 < size <=   131072             2508800             328833433600
    131072 < size <=  4194304             5651968            8632213176320
   4194304 < size <= 16777216              558720            3988638972960
  16777216 < size                          243840            6392119296000
 -------------------------------------------------------------------------------

 *** WARNING in dbcsr_mm.F:294 :: Using a non-square number of MPI ranks ***
 *** might lead to poor performance. Used ranks: 128 Suggested: 121 256  ***

 -------------------------------------------------------------------------------
 -                                                                             -
 -                      DBCSR MESSAGE PASSING PERFORMANCE                      -
 -                                                                             -
 -------------------------------------------------------------------------------
 ROUTINE             CALLS      AVE VOLUME [Bytes]
 MP_Bcast               43                     12.
 MP_Allreduce        13015                     67.
 MP_Alltoall          9270                 362360.
 MP_ISend           153332                1015278.
 MP_IRecv           153332                1014796.
 -------------------------------------------------------------------------------

 -------------------------------------------------------------------------------
 -                                                                             -
 -                                GRID STATISTICS                              -
 -                                                                             -
 -------------------------------------------------------------------------------
 LP    KERNEL             BACKEND                              COUNT     PERCENT
 1     collocate ortho    REF                              135745301      21.21%
 1     integrate ortho    REF                              130493488      20.39%
 2     integrate ortho    REF                               88995618      13.90%
 2     collocate ortho    REF                               84560451      13.21%
 0     collocate ortho    REF                               75171698      11.74%
 0     integrate ortho    REF                               68664071      10.73%
 3     integrate ortho    REF                               26282166       4.11%
 3     collocate ortho    REF                               20755016       3.24%
 4     integrate ortho    REF                                3293394       0.51%
 0     collocate general  REF                                2162688       0.34%
 1     integrate general  REF                                2162688       0.34%
 4     collocate ortho    REF                                1638196       0.26%
 5     integrate ortho    REF                                 141925       0.02%
 -------------------------------------------------------------------------------

 MEMORY| Estimated peak process memory [MiB]                                 732

 -------------------------------------------------------------------------------
 -                                                                             -
 -                         MESSAGE PASSING PERFORMANCE                         -
 -                                                                             -
 -------------------------------------------------------------------------------

 ROUTINE             CALLS      AVE VOLUME [Bytes]
 MP_Group                4
 MP_Bcast             4017                  58286.
 MP_Allreduce        11014                   1476.
 MP_Sync               136
 MP_Alltoall          2210                3851979.
 MP_ISendRecv        64516                  31968.
 MP_Wait             87538
 MP_comm_split          66
 MP_ISend            20648                 112961.
 MP_IRecv            20648                 112961.
 -------------------------------------------------------------------------------


 -------------------------------------------------------------------------------
 -                                                                             -
 -                           R E F E R E N C E S                               -
 -                                                                             -
 -------------------------------------------------------------------------------
 
 CP2K version 8.2, the CP2K developers group (2021).
 CP2K is freely available from https://www.cp2k.org/ .

 Kuehne,Thomas D.; Iannuzzi,Marcella; Del Ben,Mauro;
 Rybkin,Vladimir V.; Seewald,Patrick; Stein,Frederick; Laino,Teodoro;
 Khaliullin,Rustam Z.; Schuett,Ole; Schiffmann,Florian; Golze,Dorothea;
 Wilhelm,Jan; Chulkov,Sergey; Bani-Hashemian,Mohammad Hossein;
 Weber,Valery; Borstnik,Urban; Taillefumier,Mathieu;
 Jakobovits,Alice Shoshana; Lazzaro,Alfio; Pabst,Hans; Mueller,Tiziano;
 Schade,Robert; Guidon,Manuel; Andermatt,Samuel; Holmberg,Nico;
 Schenter,Gregory K.; Hehn,Anna; Bussy,Augustin; Belleflamme,Fabian;
 Tabacchi,Gloria; Gloess,Andreas; Lass,Michael; Bethune,Iain;
 Mundy,Christopher J.; Plessl,Christian; Watkins,Matt;
 VandeVondele,Joost; Krack,Matthias; Hutter,Juerg. 
 The Journal of Chemical Physics, 152 (19), (2020). 
 CP2K: An electronic structure and molecular dynamics software package -
 Quickstep: Efficient and accurate electronic structure calculations.
 https://doi.org/10.1063/5.0007045

 Schuett, Ole; Messmer, Peter; Hutter, Juerg; VandeVondele, Joost. 
 Electronic Structure Calculations on Graphics Processing Units, John
 Wiley & Sons, Ltd, 173-190 (2016). 
 GPU-Accelerated Sparse Matrix-Matrix Multiplication for
 Linear Scaling Density Functional Theory.
 https://doi.org/10.1002/9781118670712.ch8

 Borstnik, U; VandeVondele, J; Weber, V; Hutter, J. 
 PARALLEL COMPUTING, 40 (5-6), 47-58 (2014). 
 Sparse matrix multiplication: The distributed block-compressed sparse
 row library.
 https://doi.org/10.1016/j.parco.2014.03.012

 Hutter, J; Iannuzzi, M; Schiffmann, F; VandeVondele, J. 
 WIREs Comput Mol Sci., 4 (1), 15-25 (2014). 
 CP2K: atomistic simulations of condensed matter systems.
 https://doi.org/10.1002/wcms.1159

 Marek, A; Blum, V; Johanni, R; Havu, V; Lang, B; Auckenthaler, T;
 Heinecke, A; Bungartz, H; Lederer, H. 
 Journal of Physics: Condensed Matter, 26 (21), (2014). 
 The ELPA library: scalable parallel eigenvalue solutions for
 electronic structure
 theory and computational science.
 https://doi.org/10.1088/0953-8984/26/21/213201

 Krack, M. 
 THEORETICAL CHEMISTRY ACCOUNTS, 114 (1-3), 145-152 (2005). 
 Pseudopotentials for H to Kr optimized for gradient-corrected
 exchange-correlation functionals.
 https://doi.org/10.1007/s00214-005-0655-y

 VandeVondele, J; Krack, M; Mohamed, F; Parrinello, M; Chassaing, T;
 Hutter, J. COMPUTER PHYSICS COMMUNICATIONS, 167 (2), 103-128 (2005). 
 QUICKSTEP: Fast and accurate density functional calculations using a
 mixed Gaussian and plane waves approach.
 https://doi.org/10.1016/j.cpc.2004.12.014

 Frigo, M; Johnson, SG. 
 PROCEEDINGS OF THE IEEE, 93 (2), 216-231 (2005). 
 The design and implementation of FFTW3.
 https://doi.org/10.1109/JPROC.2004.840301

 VandeVondele, J; Hutter, J. 
 JOURNAL OF CHEMICAL PHYSICS, 118 (10), 4365-4369 (2003). 
 An efficient orbital transformation method for electronic structure
 calculations.
 https://doi.org/10.1063/1.1543154

 Hartwigsen, C; Goedecker, S; Hutter, J. 
 PHYSICAL REVIEW B, 58 (7), 3641-3662 (1998). 
 Relativistic separable dual-space Gaussian pseudopotentials from H to Rn.
 https://doi.org/10.1103/PhysRevB.58.3641

 Lippert, G; Hutter, J; Parrinello, M. 
 MOLECULAR PHYSICS, 92 (3), 477-487 (1997). 
 A hybrid Gaussian and plane wave density functional scheme.
 https://doi.org/10.1080/002689797170220

 Goedecker, S; Teter, M; Hutter, J. 
 PHYSICAL REVIEW B, 54 (3), 1703-1710 (1996). 
 Separable dual-space Gaussian pseudopotentials.
 https://doi.org/10.1103/PhysRevB.54.1703


 -------------------------------------------------------------------------------
 -                                                                             -
 -                                T I M I N G                                  -
 -                                                                             -
 -------------------------------------------------------------------------------
 SUBROUTINE                       CALLS  ASD         SELF TIME        TOTAL TIME
                                MAXIMUM       AVERAGE  MAXIMUM  AVERAGE  MAXIMUM
 CP2K                                 1  1.0    0.200    0.227  172.652  172.657
 qs_mol_dyn_low                       1  2.0    0.003    0.004  172.203  172.230
 qs_forces                           11  3.9    0.004    0.005  172.032  172.037
 qs_energies                         11  4.9    0.001    0.001  169.249  169.271
 scf_env_do_scf                      11  5.9    0.001    0.001  153.106  153.107
 scf_env_do_scf_inner_loop          116  6.6    0.003    0.009  127.341  127.341
 velocity_verlet                     10  3.0    0.001    0.002  105.506  105.507
 qs_scf_new_mos                     116  7.6    0.001    0.002  102.426  102.810
 qs_scf_loop_do_ot                  116  8.6    0.001    0.001  102.425  102.809
 ot_scf_mini                        116  9.6    0.004    0.004   97.765   98.128
 dbcsr_multiply_generic            2431 12.5    0.185    0.194   95.040   97.065
 multiply_cannon                   2431 13.5    0.270    0.292   73.658   78.736
 multiply_cannon_loop              2431 14.5    0.365    0.384   71.191   76.482
 ot_mini                            116 10.6    0.001    0.001   56.562   57.108
 multiply_cannon_multrec          38896 15.5   46.274   51.559   46.292   51.579
 mp_waitall_1                    339162 16.1   20.463   33.479   20.463   33.479
 qs_ot_get_derivative               116 11.6    0.002    0.002   29.112   29.498
 ot_diis_step                       116 11.6    0.008    0.008   26.887   26.887
 apply_preconditioner_dbcsr         127 12.6    0.000    0.000   25.279   26.874
 apply_single                       127 13.6    0.001    0.001   25.279   26.873
 multiply_cannon_metrocomm3       38896 15.5    0.101    0.110   13.375   25.687
 init_scf_loop                       11  6.9    0.000    0.001   25.678   25.679
 qs_ot_get_p                        127 10.4    0.001    0.001   23.749   24.411
 prepare_preconditioner              11  7.9    0.000    0.000   22.902   22.953
 make_preconditioner                 11  8.9    0.000    0.001   22.902   22.953
 make_full_inverse_cholesky          11  9.9    0.000    0.000   22.239   22.310
 mp_irecv_dv                      96285 16.1    9.557   20.280    9.557   20.280
 multiply_cannon_metrocomm4       36465 15.5    0.109    0.117    9.611   20.104
 rebuild_ks_matrix                  127  8.3    0.001    0.001   18.549   19.120
 qs_ks_build_kohn_sham_matrix       127  9.3    0.017    0.019   18.548   19.119
 qs_ks_update_qs_env                127  7.6    0.002    0.003   16.891   17.413
 qs_ot_p2m_diag                      66 11.2    0.130    0.138   17.268   17.304
 cp_dbcsr_syevd                      66 12.2    0.005    0.005   16.362   16.366
 cp_fm_diag_elpa                     66 13.2    0.000    0.001   16.216   16.218
 cp_fm_redistribute_end              66 14.2   11.577   16.109   11.607   16.113
 cp_fm_diag_elpa_base                66 14.2    4.441   15.812    4.487   15.973
 cp_fm_cholesky_invert               11 10.9   13.469   13.477   13.469   13.477
 make_m2s                          4862 13.5    0.116    0.123   12.211   12.856
 init_scf_run                        11  5.9    0.000    0.001   11.089   11.089
 scf_env_initial_rho_setup           11  6.9    0.000    0.000   11.089   11.089
 qs_ot_get_derivative_diag           62 12.2    0.002    0.002   10.833   11.082
 qs_rho_update_rho                  127  7.7    0.001    0.001   10.304   10.380
 calculate_rho_elec                 127  8.7    0.086    0.089   10.303   10.379
 wfi_extrapolate                     11  7.9    0.001    0.001   10.056   10.056
 make_images                       4862 14.5    1.129    1.735    9.297    9.896
 mp_sum_l                         11831 13.4    6.793    9.017    6.793    9.017
 cp_fm_cholesky_decompose            22 10.9    7.550    7.611    7.550    7.611
 qs_ot_get_orbitals                 116 10.6    0.001    0.001    6.774    7.081
 qs_ot_get_derivative_taylor         54 13.0    0.002    0.002    6.902    7.053
 cp_gemm                             81  9.0    0.000    0.000    6.708    6.754
 cp_gemm_fm_gemm                     81 10.0    0.001    0.001    6.708    6.754
 cp_fm_gemm                          81 11.0    6.707    6.753    6.707    6.753
 sum_up_and_integrate               127 10.3    0.029    0.032    6.445    6.482
 make_images_data                  4862 15.5    0.061    0.068    5.531    6.481
 integrate_v_rspace                 127 11.3    0.004    0.005    6.416    6.453
 hybrid_alltoall_any               5031 16.4    0.125    0.926    5.135    6.076
 grid_collocate_task_list           127  9.7    5.324    5.667    5.324    5.667
 mp_sum_d                          4424 12.1    4.070    5.634    4.070    5.634
 dbcsr_dot_sd                      1303 12.0    0.740    0.773    4.062    5.510
 calculate_dm_sparse                127  9.5    0.001    0.001    5.140    5.355
 rs_pw_transfer                    1038 11.9    0.011    0.012    4.468    4.945
 density_rs2pw                      127  9.7    0.004    0.005    3.978    4.441
 pw_transfer                       1535 11.6    0.063    0.070    4.051    4.269
 fft_wrap_pw1pw2                   1281 12.7    0.008    0.008    3.957    4.179
 dbcsr_make_dense_low              8334 15.6    0.060    0.064    3.300    3.999
 cp_dbcsr_sm_fm_multiply             37  9.5    0.002    0.002    3.965    3.973
 make_dense_data                   8334 16.6    3.025    3.738    3.221    3.920
 fft3d_ps                          1281 14.7    0.978    1.588    3.588    3.807
 fft_wrap_pw1pw2_140                519 13.2    0.116    0.121    3.411    3.714
 -------------------------------------------------------------------------------

 The number of warnings for this run is : 2
 
 -------------------------------------------------------------------------------
  **** **** ******  **  PROGRAM ENDED AT                 2022-01-17 17:04:47.579
 ***** ** ***  *** **   PROGRAM RAN ON                                 nid005035
 **    ****   ******    PROGRAM RAN BY                                    hjudge
 ***** **    ** ** **   PROGRAM PROCESS ID                                164144
  **** **  *******  **  PROGRAM STOPPED IN /mnt/lustre/a2fs-work2/work/z19/z19/h
                                           judge/CUG/archer2/CPU/CP2K/H2O-512/8N
                                           ODES/128CPN/8THREADS
