 DBCSR| CPU Multiplication driver                                           BLAS
 DBCSR| Multrec recursion limit                                              512
 DBCSR| Multiplication stack size                                           1000
 DBCSR| Maximum elements for images                                    UNLIMITED
 DBCSR| Multiplicative factor virtual images                                   1
 DBCSR| Use multiplication densification                                       T
 DBCSR| Multiplication size stacks                                             3
 DBCSR| Use memory pool for CPU allocation                                     F
 DBCSR| Number of 3D layers                                               SINGLE
 DBCSR| Use MPI memory allocation                                              F
 DBCSR| Use RMA algorithm                                                      F
 DBCSR| Use Communication thread                                               T
 DBCSR| Communication thread load                                             30
 DBCSR| MPI: My node id                                                        0
 DBCSR| MPI: Number of nodes                                                 128
 DBCSR| OMP: Current number of threads                                        16
 DBCSR| OMP: Max number of threads                                            16
 DBCSR| Split modifier for TAS multiplication algorithm                  1.0E+00


  **** **** ******  **  PROGRAM STARTED AT               2022-01-20 10:39:00.944
 ***** ** ***  *** **   PROGRAM STARTED ON                             nid001103
 **    ****   ******    PROGRAM STARTED BY                                hjudge
 ***** **    ** ** **   PROGRAM PROCESS ID                                128647
  **** **  *******  **  PROGRAM STARTED IN /mnt/lustre/a2fs-work2/work/z19/z19/h
                                           judge/CUG/archer2/CPU/CP2K/H2O-512/16
                                           NODES/128CPN/16THREADS

 CP2K| version string:                                          CP2K version 8.2
 CP2K| source code revision number:                                  git:310b7ab
 CP2K| cp2kflags: omp libint fftw3 libxc elpa parallel mpi3 scalapack plumed2   
 CP2K| is freely available from                            https://www.cp2k.org/
 CP2K| Program compiled at                          Thu Dec  2 10:30:45 GMT 2021
 CP2K| Program compiled on                                                  ln02
 CP2K| Program compiled for                                              ARCHER2
 CP2K| Data directory path         /work/y07/shared/apps/core/cp2k/cp2k-8.2/data
 CP2K| Input file name                                               H2O-512.inp

 GLOBAL| Force Environment number                                              1
 GLOBAL| Basis set file name                                      GTH_BASIS_SETS
 GLOBAL| Potential file name                                           POTENTIAL
 GLOBAL| MM Potential file name                                     MM_POTENTIAL
 GLOBAL| Coordinate file name                                      __STD_INPUT__
 GLOBAL| Method name                                                        CP2K
 GLOBAL| Project name                                                    H2O-512
 GLOBAL| Run type                                                             MD
 GLOBAL| FFT library                                                       FFTW3
 GLOBAL| Diagonalization library                                            ELPA
 GLOBAL| Minimum number of eigenvectors for ELPA usage                        16
 GLOBAL| Orthonormality check for eigenvectors                          DISABLED
 GLOBAL| Matrix multiplication library                                    SCALAP
 GLOBAL| All-to-all communication in single precision                          F
 GLOBAL| FFTs using library dependent lengths                                  F
 GLOBAL| Grid backend                                                       AUTO
 GLOBAL| Global print level                                                  LOW
 GLOBAL| MPI I/O enabled                                                       T
 GLOBAL| Total number of message passing processes                           128
 GLOBAL| Number of threads for this process                                   16
 GLOBAL| This output is from process                                           0
 GLOBAL| CPU model name                          AMD EPYC 7742 64-Core Processor
 GLOBAL| CPUID                                                              1002

 MEMORY| system memory details [Kb]
 MEMORY|                        rank 0           min           max       average
 MEMORY| MemTotal            263528088     263528084     263528088     263528087
 MEMORY| MemFree             251807144     251807144     253994092     252676434
 MEMORY| Buffers                 31096         17272         31096         19922
 MEMORY| Cached                1518148        559340       1775768       1074659
 MEMORY| Slab                  1719152       1534912       1719152       1651110
 MEMORY| SReclaimable           143236         97580        143236        114615
 MEMORY| MemLikelyFree       253499624     253499624     254668492     253885632


 GENERATE|  Preliminary Number of Bonds generated:                             0
 GENERATE|  Achieved consistency in connectivity generation.

 *******************************************************************************
 *******************************************************************************
 **                                                                           **
 **     #####                         ##              ##                      **
 **    ##   ##            ##          ##              ##                      **
 **   ##     ##                       ##            ######                    **
 **   ##     ##  ##   ##  ##   #####  ##  ##   ####   ##    #####    #####    **
 **   ##     ##  ##   ##  ##  ##      ## ##   ##      ##   ##   ##  ##   ##   **
 **   ##  ## ##  ##   ##  ##  ##      ####     ###    ##   ######   ######    **
 **    ##  ###   ##   ##  ##  ##      ## ##      ##   ##   ##       ##        **
 **     #######   #####   ##   #####  ##  ##  ####    ##    #####   ##        **
 **           ##                                                    ##        **
 **                                                                           **
 **                                                ... make the atoms dance   **
 **                                                                           **
 **            Copyright (C) by CP2K developers group (2000-2021)             **
 **                      J. Chem. Phys. 152, 194103 (2020)                    **
 **                                                                           **
 *******************************************************************************


 TOTAL NUMBERS AND MAXIMUM NUMBERS

  Total number of            - Atomic kinds:                                   2
                             - Atoms:                                       1536
                             - Shell sets:                                  3072
                             - Shells:                                      9216
                             - Primitive Cartesian functions:              10752
                             - Cartesian basis functions:                  21504
                             - Spherical basis functions:                  20480

  Maximum angular momentum of- Orbital basis functions:                        2
                             - Local part of the GTH pseudopotential:          2
                             - Non-local part of the GTH pseudopotential:      0


 SCF PARAMETERS         Density guess:                                    ATOMIC
                        --------------------------------------------------------
                        max_scf:                                              50
                        max_scf_history:                                       0
                        max_diis:                                              4
                        --------------------------------------------------------
                        eps_scf:                                        1.00E-05
                        eps_scf_history:                                0.00E+00
                        eps_diis:                                       1.00E-01
                        eps_eigval:                                     1.00E-05
                        --------------------------------------------------------
                        level_shift [a.u.]:                                 0.00
                        --------------------------------------------------------
                        No outer SCF

 MD_PAR| Molecular dynamics protocol (MD input parameters)
 MD_PAR| Ensemble type                                                       NVE
 MD_PAR| Number of time steps                                                 10
 MD_PAR| Time step [fs]                                                 0.500000
 MD_PAR| Temperature [K]                                              300.000000
 MD_PAR| Temperature tolerance [K]                                      0.000000
 MD_PAR| Print MD information every                                    1 step(s)
 MD_PAR| File type   Print frequency [steps]                          File names
 MD_PAR| Coordinates          1                                H2O-512-pos-1.xyz
 MD_PAR| Velocities           1                                H2O-512-vel-1.xyz
 MD_PAR| Energies             1                                   H2O-512-1.ener
 MD_PAR| Dump                20                                H2O-512-1.restart

 ROT| Rotational analysis information
 ROT| Principal axes and moments of inertia [a.u.]
 ROT|                           1                   2                   3
 ROT| Eigenvalues      6.12011925703E+09   6.17734003456E+09   6.32378668800E+09
 ROT|      x              0.229702356692      0.883899672739      0.407379670409
 ROT|      y              0.711719446246      0.132949289019     -0.689768016354
 ROT|      z              0.663846561462     -0.448381372362      0.598549820611
 ROT| Number of rotovibrational vectors                                        6

 DOF| Calculation of degrees of freedom
 DOF| Number of atoms                                                       1536
 DOF| Number of intramolecular constraints                                     0
 DOF| Number of intermolecular constraints                                     0
 DOF| Invariants (translations + rotations)                                    3
 DOF| Degrees of freedom                                                    4605

 DOF| Restraints information
 DOF| Number of intramolecular restraints                                      0
 DOF| Number of intermolecular restraints                                      0

 MD_VEL| Velocities initialization
 MD_VEL| Initial temperature [K]                                      300.000000
 MD_VEL| COM velocity             0.0000000000    -0.0000000000     0.0000000000

 Number of electrons:                                                       4096
 Number of occupied orbitals:                                               2048
 Number of molecular orbitals:                                              2048

 Number of orbital functions:                                              20480
 Number of independent orbital functions:                                  20480

 Extrapolation method: initial_guess


 SCF WAVEFUNCTION OPTIMIZATION

  ----------------------------------- OT ---------------------------------------
  Minimizer      : DIIS                : direct inversion
                                         in the iterative subspace
                                         using   7 DIIS vectors
                                         safer DIIS on
  Preconditioner : FULL_KINETIC        : inversion of T + eS
  Precond_solver : DEFAULT
  stepsize       :    0.15000000                  energy_gap     :    0.20000000
  eps_taylor     :   0.10000E-15                  max_taylor     :             4
  ----------------------------------- OT ---------------------------------------

  Step     Update method      Time    Convergence         Total energy    Change
  ------------------------------------------------------------------------------
     1 OT DIIS     0.15E+00    3.3     0.00467324     -8480.4728425690 -8.48E+03
     2 OT DIIS     0.15E+00    1.0     0.00318266     -8587.4488310143 -1.07E+02
     3 OT DIIS     0.15E+00    1.1     0.00347210     -8644.7931966768 -5.73E+01
     4 OT DIIS     0.15E+00    1.1     0.00204380     -8678.2157923836 -3.34E+01
     5 OT DIIS     0.15E+00    1.1     0.00148292     -8717.4624183879 -3.92E+01
     6 OT DIIS     0.15E+00    1.1     0.00119954     -8738.7795043572 -2.13E+01
     7 OT DIIS     0.15E+00    1.0     0.00099038     -8755.0185947301 -1.62E+01
     8 OT DIIS     0.15E+00    1.0     0.00079894     -8767.5347825454 -1.25E+01
     9 OT DIIS     0.15E+00    1.0     0.00061581     -8780.1862563834 -1.27E+01
    10 OT DIIS     0.15E+00    1.0     0.00048147     -8788.6147471043 -8.43E+00
    11 OT DIIS     0.15E+00    1.0     0.00038278     -8794.1215228889 -5.51E+00
    12 OT DIIS     0.15E+00    1.0     0.00031960     -8797.5363589594 -3.41E+00
    13 OT DIIS     0.15E+00    1.0     0.00026435     -8799.9344030908 -2.40E+00
    14 OT DIIS     0.15E+00    1.0     0.00023004     -8801.7089305035 -1.77E+00
    15 OT DIIS     0.15E+00    1.0     0.00019592     -8803.0697888564 -1.36E+00
    16 OT DIIS     0.15E+00    1.0     0.00016642     -8804.2000843411 -1.13E+00
    17 OT DIIS     0.15E+00    1.0     0.00014164     -8805.0506655806 -8.51E-01
    18 OT DIIS     0.15E+00    1.0     0.00012638     -8805.6725421207 -6.22E-01
    19 OT DIIS     0.15E+00    1.0     0.00010717     -8806.2171485645 -5.45E-01
    20 OT DIIS     0.15E+00    1.0     0.00009868     -8806.5290018963 -3.12E-01
    21 OT DIIS     0.15E+00    1.0     0.00008484     -8806.8772741195 -3.48E-01
    22 OT DIIS     0.15E+00    1.0     0.00007717     -8807.0943334427 -2.17E-01
    23 OT DIIS     0.15E+00    1.0     0.00006815     -8807.2974129499 -2.03E-01
    24 OT DIIS     0.15E+00    1.0     0.00006019     -8807.4529078233 -1.55E-01
    25 OT DIIS     0.15E+00    1.0     0.00005010     -8807.5989834234 -1.46E-01
    26 OT DIIS     0.15E+00    1.0     0.00004000     -8807.6989662228 -1.00E-01
    27 OT DIIS     0.15E+00    1.0     0.00003462     -8807.7827122401 -8.37E-02
    28 OT DIIS     0.15E+00    1.0     0.00003071     -8807.7824932500  2.19E-04
    29 OT DIIS     0.15E+00    1.0     0.00002690     -8807.8200993195 -3.76E-02
    30 OT DIIS     0.15E+00    1.0     0.00002500     -8807.8399634016 -1.99E-02
    31 OT DIIS     0.15E+00    1.0     0.00002395     -8807.8566460922 -1.67E-02
    32 OT DIIS     0.15E+00    1.0     0.00002328     -8807.8682689642 -1.16E-02
    33 OT DIIS     0.15E+00    1.0     0.00002304     -8807.8827275965 -1.45E-02
    34 OT DIIS     0.15E+00    1.0     0.00002300     -8807.8854890296 -2.76E-03
    35 OT SD       0.15E+00    1.0     0.00002301     -8807.8907467596 -5.26E-03
    36 OT SD       0.15E+00    1.0     0.00002308     -8807.8940817096 -3.33E-03
    37 OT SD       0.15E+00    1.0     0.00002318     -8807.8974407043 -3.36E-03
    38 OT SD       0.15E+00    1.0     0.00002329     -8807.9008284718 -3.39E-03
    39 OT SD       0.15E+00    1.0     0.00002341     -8807.9042491083 -3.42E-03
    40 OT SD       0.15E+00    1.0     0.00002354     -8807.9077063658 -3.46E-03
    41 OT SD       0.15E+00    1.0     0.00002369     -8807.9112037365 -3.50E-03
    42 OT SD       0.15E+00    1.0     0.00002384     -8807.9147444866 -3.54E-03
    43 OT SD       0.15E+00    1.0     0.00002400     -8807.9183316715 -3.59E-03
    44 OT SD       0.15E+00    1.0     0.00002417     -8807.9219681410 -3.64E-03
    45 OT DIIS     0.15E+00    1.0     0.00002435     -8807.9256565390 -3.69E-03
    46 OT DIIS     0.15E+00    1.0     0.00004965     -8807.9134677256  1.22E-02
    47 OT SD       0.15E+00    1.0     0.00005092     -8807.9143154770 -8.48E-04
    48 OT SD       0.15E+00    1.0     0.00004017     -8807.9285948633 -1.43E-02
    49 OT SD       0.15E+00    1.0     0.00003560     -8807.9380836579 -9.49E-03
    50 OT SD       0.15E+00    1.0     0.00003337     -8807.9457676456 -7.68E-03

  Leaving inner SCF loop after reaching    50 steps.


  Electronic density on regular grids:      -4096.0000074601       -0.0000074601
  Core density on regular grids:             4095.9999999927       -0.0000000073
  Total charge density on r-space grids:       -0.0000074674
  Total charge density g-space grids:          -0.0000074674

  Overlap energy of the core charge distribution:               0.00004500798551
  Self energy of the core charge distribution:             -22442.43995950839599
  Core Hamiltonian energy:                                   6603.78915760735072
  Hartree energy:                                            9161.23612651492476
  Exchange-correlation energy:                              -2130.53113726750098

  Total energy:                                             -8807.94576764563499

 *** WARNING in qs_scf.F:576 :: SCF run NOT converged ***


 ENERGY| Total FORCE_EVAL ( QS ) energy [a.u.]:            -8807.952634581992243

 MD_INI| MD initialization
 MD_INI| Potential energy [hartree]                          -0.880795263458E+04
 MD_INI| Kinetic energy [hartree]                             0.218747769838E+01
 MD_INI| Temperature [K]                                              300.000000
 MD_INI| Cell volume [bohr^3]                                 1.037187315243E+05
 MD_INI| Cell volume [ang^3]                                  1.536953010365E+04
 MD_INI| Cell lengths [bohr]      4.69842608E+01  4.69842608E+01  4.69842608E+01
 MD_INI| Cell lengths [ang]       2.48630000E+01  2.48630000E+01  2.48630000E+01
 MD_INI| Cell angles [deg]        9.00000000E+01  9.00000000E+01  9.00000000E+01

 Number of electrons:                                                       4096
 Number of occupied orbitals:                                               2048
 Number of molecular orbitals:                                              2048

 Number of orbital functions:                                              20480
 Number of independent orbital functions:                                  20480

 Extrapolation method: PS Nth order
 Extrapolation order:  0


 SCF WAVEFUNCTION OPTIMIZATION

  ----------------------------------- OT ---------------------------------------
  Minimizer      : DIIS                : direct inversion
                                         in the iterative subspace
                                         using   7 DIIS vectors
                                         safer DIIS on
  Preconditioner : FULL_KINETIC        : inversion of T + eS
  Precond_solver : DEFAULT
  stepsize       :    0.15000000                  energy_gap     :    0.20000000
  eps_taylor     :   0.10000E-15                  max_taylor     :             4
  ----------------------------------- OT ---------------------------------------

  Step     Update method      Time    Convergence         Total energy    Change
  ------------------------------------------------------------------------------
     1 OT DIIS     0.15E+00    2.7     0.00010167     -8807.9546829379 -8.81E+03
     2 OT DIIS     0.15E+00    0.8     0.00007400     -8808.0094330033 -5.48E-02
     3 OT DIIS     0.15E+00    0.8     0.00005494     -8808.0648263121 -5.54E-02
     4 OT DIIS     0.15E+00    0.8     0.00004934     -8808.1022484877 -3.74E-02
     5 OT DIIS     0.15E+00    1.1     0.00004591     -8808.1451921760 -4.29E-02
     6 OT DIIS     0.15E+00    1.1     0.00004348     -8808.1874129016 -4.22E-02
     7 OT DIIS     0.15E+00    1.1     0.00003909     -8808.2478292901 -6.04E-02
     8 OT DIIS     0.15E+00    1.1     0.00002826     -8808.3275762105 -7.97E-02
     9 OT DIIS     0.15E+00    1.1     0.00002024     -8808.3587279806 -3.12E-02
    10 OT DIIS     0.15E+00    1.1     0.00001286     -8808.3785523444 -1.98E-02
    11 OT DIIS     0.15E+00    1.1     0.00001025     -8808.3792766699 -7.24E-04
    12 OT DIIS     0.15E+00    1.1     0.00000704     -8808.3828084229 -3.53E-03

  *** SCF run converged in    12 steps ***


  Electronic density on regular grids:      -4096.0000079114       -0.0000079114
  Core density on regular grids:             4095.9999999916       -0.0000000084
  Total charge density on r-space grids:       -0.0000079198
  Total charge density g-space grids:          -0.0000079198

  Overlap energy of the core charge distribution:               0.00004378133037
  Self energy of the core charge distribution:             -22442.43995950839599
  Core Hamiltonian energy:                                   6601.18557923691151
  Hartree energy:                                            9162.93972837379988
  Exchange-correlation energy:                              -2130.06820030655035

  Total energy:                                             -8808.38280842290624

 ENERGY| Total FORCE_EVAL ( QS ) energy [a.u.]:            -8808.383485147338433

 MD| ***************************************************************************
 MD| Step number                                                               1
 MD| Time [fs]                                                          0.500000
 MD| Conserved quantity [hartree]                            -0.880615757391E+04
 MD| ---------------------------------------------------------------------------
 MD|                                          Instantaneous             Averages
 MD| CPU time per MD step [s]                     71.164129            71.164129
 MD| Energy drift per atom [K]          -0.806740550638E+02   0.000000000000E+00
 MD| Potential energy [hartree]         -0.880838348515E+04  -0.880838348515E+04
 MD| Kinetic energy [hartree]            0.222591123657E+01   0.222591123657E+01
 MD| Temperature [K]                             305.270939           305.270939
 MD| ***************************************************************************

 Number of electrons:                                                       4096
 Number of occupied orbitals:                                               2048
 Number of molecular orbitals:                                              2048

 Number of orbital functions:                                              20480
 Number of independent orbital functions:                                  20480

 Extrapolation method: PS Nth order
 Extrapolation order:  1


 SCF WAVEFUNCTION OPTIMIZATION

  ----------------------------------- OT ---------------------------------------
  Minimizer      : DIIS                : direct inversion
                                         in the iterative subspace
                                         using   7 DIIS vectors
                                         safer DIIS on
  Preconditioner : FULL_KINETIC        : inversion of T + eS
  Precond_solver : DEFAULT
  stepsize       :    0.15000000                  energy_gap     :    0.20000000
  eps_taylor     :   0.10000E-15                  max_taylor     :             4
  ----------------------------------- OT ---------------------------------------

  Step     Update method      Time    Convergence         Total energy    Change
  ------------------------------------------------------------------------------
     1 OT DIIS     0.15E+00    2.6     0.00008001     -8808.4313032334 -8.81E+03
     2 OT DIIS     0.15E+00    0.8     0.00005271     -8808.4637393448 -3.24E-02
     3 OT DIIS     0.15E+00    0.8     0.00003321     -8808.4886463891 -2.49E-02
     4 OT DIIS     0.15E+00    0.8     0.00002251     -8808.5029429990 -1.43E-02
     5 OT DIIS     0.15E+00    0.8     0.00001407     -8808.5119277082 -8.98E-03
     6 OT DIIS     0.15E+00    0.8     0.00000837     -8808.5159220714 -3.99E-03

  *** SCF run converged in     6 steps ***


  Electronic density on regular grids:      -4096.0000084069       -0.0000084069
  Core density on regular grids:             4095.9999999941       -0.0000000059
  Total charge density on r-space grids:       -0.0000084128
  Total charge density g-space grids:          -0.0000084128

  Overlap energy of the core charge distribution:               0.00003948981573
  Self energy of the core charge distribution:             -22442.43995950839599
  Core Hamiltonian energy:                                   6592.75632865823627
  Hartree energy:                                            9168.97935510312891
  Exchange-correlation energy:                              -2127.81168581421389

  Total energy:                                             -8808.51592207142676

 ENERGY| Total FORCE_EVAL ( QS ) energy [a.u.]:            -8808.517233798827874

 MD| ***************************************************************************
 MD| Step number                                                               2
 MD| Time [fs]                                                          1.000000
 MD| Conserved quantity [hartree]                            -0.880616181745E+04
 MD| ---------------------------------------------------------------------------
 MD|                                          Instantaneous             Averages
 MD| CPU time per MD step [s]                      7.569606            39.366867
 MD| Energy drift per atom [K]          -0.815464526857E+02  -0.407732263428E+02
 MD| Potential energy [hartree]         -0.880851723380E+04  -0.880845035947E+04
 MD| Kinetic energy [hartree]            0.235541634681E+01   0.229066379169E+01
 MD| Temperature [K]                             323.031821           314.151380
 MD| ***************************************************************************

 Number of electrons:                                                       4096
 Number of occupied orbitals:                                               2048
 Number of molecular orbitals:                                              2048

 Number of orbital functions:                                              20480
 Number of independent orbital functions:                                  20480

 Extrapolation method: PS Nth order
 Extrapolation order:  2


 SCF WAVEFUNCTION OPTIMIZATION

  ----------------------------------- OT ---------------------------------------
  Minimizer      : DIIS                : direct inversion
                                         in the iterative subspace
                                         using   7 DIIS vectors
                                         safer DIIS on
  Preconditioner : FULL_KINETIC        : inversion of T + eS
  Precond_solver : DEFAULT
  stepsize       :    0.15000000                  energy_gap     :    0.20000000
  eps_taylor     :   0.10000E-15                  max_taylor     :             4
  ----------------------------------- OT ---------------------------------------

  Step     Update method      Time    Convergence         Total energy    Change
  ------------------------------------------------------------------------------
     1 OT DIIS     0.15E+00    2.7     0.00008985     -8808.3717913335 -8.81E+03
     2 OT DIIS     0.15E+00    0.8     0.00007425     -8808.4174612846 -4.57E-02
     3 OT DIIS     0.15E+00    0.8     0.00005875     -8808.4861936623 -6.87E-02
     4 OT DIIS     0.15E+00    0.8     0.00004979     -8808.5436661990 -5.75E-02
     5 OT DIIS     0.15E+00    0.8     0.00004006     -8808.6033776722 -5.97E-02
     6 OT DIIS     0.15E+00    1.1     0.00002840     -8808.6545512561 -5.12E-02
     7 OT DIIS     0.15E+00    1.1     0.00001854     -8808.6820955865 -2.75E-02
     8 OT DIIS     0.15E+00    1.1     0.00001252     -8808.6920673751 -9.97E-03
     9 OT DIIS     0.15E+00    1.1     0.00000891     -8808.6959096932 -3.84E-03

  *** SCF run converged in     9 steps ***


  Electronic density on regular grids:      -4096.0000081507       -0.0000081507
  Core density on regular grids:             4095.9999999985       -0.0000000015
  Total charge density on r-space grids:       -0.0000081522
  Total charge density g-space grids:          -0.0000081522

  Overlap energy of the core charge distribution:               0.00003222729770
  Self energy of the core charge distribution:             -22442.43995950839599
  Core Hamiltonian energy:                                   6579.97331151979779
  Hartree energy:                                            9178.11112424809835
  Exchange-correlation energy:                              -2124.34041817996194

  Total energy:                                             -8808.69590969316414

 ENERGY| Total FORCE_EVAL ( QS ) energy [a.u.]:            -8808.697757772695695

 MD| ***************************************************************************
 MD| Step number                                                               3
 MD| Time [fs]                                                          1.500000
 MD| Conserved quantity [hartree]                            -0.880616479715E+04
 MD| ---------------------------------------------------------------------------
 MD|                                          Instantaneous             Averages
 MD| CPU time per MD step [s]                     11.320922            30.018219
 MD| Energy drift per atom [K]          -0.821590263858E+02  -0.545684930238E+02
 MD| Potential energy [hartree]         -0.880869775777E+04  -0.880853282557E+04
 MD| Kinetic energy [hartree]            0.253296062230E+01   0.237142940190E+01
 MD| Temperature [K]                             347.380998           325.227919
 MD| ***************************************************************************

 Number of electrons:                                                       4096
 Number of occupied orbitals:                                               2048
 Number of molecular orbitals:                                              2048

 Number of orbital functions:                                              20480
 Number of independent orbital functions:                                  20480

 Extrapolation method: PS Nth order
 Extrapolation order:  3


 SCF WAVEFUNCTION OPTIMIZATION

  ----------------------------------- OT ---------------------------------------
  Minimizer      : DIIS                : direct inversion
                                         in the iterative subspace
                                         using   7 DIIS vectors
                                         safer DIIS on
  Preconditioner : FULL_KINETIC        : inversion of T + eS
  Precond_solver : DEFAULT
  stepsize       :    0.15000000                  energy_gap     :    0.20000000
  eps_taylor     :   0.10000E-15                  max_taylor     :             4
  ----------------------------------- OT ---------------------------------------

  Step     Update method      Time    Convergence         Total energy    Change
  ------------------------------------------------------------------------------
     1 OT DIIS     0.15E+00    2.7     0.00008300     -8808.7600968606 -8.81E+03
     2 OT DIIS     0.15E+00    0.8     0.00005686     -8808.7956153101 -3.55E-02
     3 OT DIIS     0.15E+00    0.8     0.00003614     -8808.8258107744 -3.02E-02
     4 OT DIIS     0.15E+00    0.8     0.00002270     -8808.8440326162 -1.82E-02
     5 OT DIIS     0.15E+00    0.8     0.00001489     -8808.8523323177 -8.30E-03
     6 OT DIIS     0.15E+00    0.8     0.00000969     -8808.8563574184 -4.03E-03

  *** SCF run converged in     6 steps ***


  Electronic density on regular grids:      -4096.0000085826       -0.0000085826
  Core density on regular grids:             4096.0000000009        0.0000000009
  Total charge density on r-space grids:       -0.0000085817
  Total charge density g-space grids:          -0.0000085817

  Overlap energy of the core charge distribution:               0.00002346617231
  Self energy of the core charge distribution:             -22442.43995950839599
  Core Hamiltonian energy:                                   6564.27160500646369
  Hartree energy:                                            9189.38284730663509
  Exchange-correlation energy:                              -2120.07087368924931

  Total energy:                                             -8808.85635741837541

 ENERGY| Total FORCE_EVAL ( QS ) energy [a.u.]:            -8808.858123354850250

 MD| ***************************************************************************
 MD| Step number                                                               4
 MD| Time [fs]                                                          2.000000
 MD| Conserved quantity [hartree]                            -0.880616980003E+04
 MD| ---------------------------------------------------------------------------
 MD|                                          Instantaneous             Averages
 MD| CPU time per MD step [s]                      8.023551            24.519552
 MD| Energy drift per atom [K]          -0.831875302659E+02  -0.617232523343E+02
 MD| Potential energy [hartree]         -0.880885812335E+04  -0.880861415002E+04
 MD| Kinetic energy [hartree]            0.268832332671E+01   0.245065288310E+01
 MD| Temperature [K]                             368.688101           336.092965
 MD| ***************************************************************************

 Number of electrons:                                                       4096
 Number of occupied orbitals:                                               2048
 Number of molecular orbitals:                                              2048

 Number of orbital functions:                                              20480
 Number of independent orbital functions:                                  20480

 Extrapolation method: PS Nth order
 Extrapolation order:  3


 SCF WAVEFUNCTION OPTIMIZATION

  ----------------------------------- OT ---------------------------------------
  Minimizer      : DIIS                : direct inversion
                                         in the iterative subspace
                                         using   7 DIIS vectors
                                         safer DIIS on
  Preconditioner : FULL_KINETIC        : inversion of T + eS
  Precond_solver : DEFAULT
  stepsize       :    0.15000000                  energy_gap     :    0.20000000
  eps_taylor     :   0.10000E-15                  max_taylor     :             4
  ----------------------------------- OT ---------------------------------------

  Step     Update method      Time    Convergence         Total energy    Change
  ------------------------------------------------------------------------------
     1 OT DIIS     0.15E+00    2.8     0.00005398     -8808.8521925278 -8.81E+03
     2 OT DIIS     0.15E+00    0.8     0.00004360     -8808.8685927591 -1.64E-02
     3 OT DIIS     0.15E+00    1.0     0.00002876     -8808.8948182782 -2.62E-02
     4 OT DIIS     0.15E+00    1.0     0.00002104     -8808.9082092934 -1.34E-02
     5 OT DIIS     0.15E+00    1.0     0.00001317     -8808.9185176501 -1.03E-02
     6 OT DIIS     0.15E+00    1.0     0.00000843     -8808.9223707298 -3.85E-03

  *** SCF run converged in     6 steps ***


  Electronic density on regular grids:      -4096.0000071800       -0.0000071800
  Core density on regular grids:             4095.9999999999       -0.0000000001
  Total charge density on r-space grids:       -0.0000071801
  Total charge density g-space grids:          -0.0000071801

  Overlap energy of the core charge distribution:               0.00001548086207
  Self energy of the core charge distribution:             -22442.43995950839599
  Core Hamiltonian energy:                                   6547.40963269918029
  Hartree energy:                                            9201.58655664624348
  Exchange-correlation energy:                              -2115.47861604770060

  Total energy:                                             -8808.92237072981152

 ENERGY| Total FORCE_EVAL ( QS ) energy [a.u.]:            -8808.923934070968244

 MD| ***************************************************************************
 MD| Step number                                                               5
 MD| Time [fs]                                                          2.500000
 MD| Conserved quantity [hartree]                            -0.880617228767E+04
 MD| ---------------------------------------------------------------------------
 MD|                                          Instantaneous             Averages
 MD| CPU time per MD step [s]                      9.102538            21.436149
 MD| Energy drift per atom [K]          -0.836989456538E+02  -0.661183909982E+02
 MD| Potential energy [hartree]         -0.880892393407E+04  -0.880867610683E+04
 MD| Kinetic energy [hartree]            0.275164640159E+01   0.251085158680E+01
 MD| Temperature [K]                             377.372497           344.348871
 MD| ***************************************************************************

 Number of electrons:                                                       4096
 Number of occupied orbitals:                                               2048
 Number of molecular orbitals:                                              2048

 Number of orbital functions:                                              20480
 Number of independent orbital functions:                                  20480

 Extrapolation method: PS Nth order
 Extrapolation order:  3


 SCF WAVEFUNCTION OPTIMIZATION

  ----------------------------------- OT ---------------------------------------
  Minimizer      : DIIS                : direct inversion
                                         in the iterative subspace
                                         using   7 DIIS vectors
                                         safer DIIS on
  Preconditioner : FULL_KINETIC        : inversion of T + eS
  Precond_solver : DEFAULT
  stepsize       :    0.15000000                  energy_gap     :    0.20000000
  eps_taylor     :   0.10000E-15                  max_taylor     :             4
  ----------------------------------- OT ---------------------------------------

  Step     Update method      Time    Convergence         Total energy    Change
  ------------------------------------------------------------------------------
     1 OT DIIS     0.15E+00    2.7     0.00004459     -8808.8152220410 -8.81E+03
     2 OT DIIS     0.15E+00    0.8     0.00003657     -8808.8265186579 -1.13E-02
     3 OT DIIS     0.15E+00    0.8     0.00002088     -8808.8466717167 -2.02E-02
     4 OT DIIS     0.15E+00    0.8     0.00001309     -8808.8539218838 -7.25E-03
     5 OT DIIS     0.15E+00    0.8     0.00000884     -8808.8567199198 -2.80E-03

  *** SCF run converged in     5 steps ***


  Electronic density on regular grids:      -4096.0000062624       -0.0000062624
  Core density on regular grids:             4095.9999999983       -0.0000000017
  Total charge density on r-space grids:       -0.0000062641
  Total charge density g-space grids:          -0.0000062641

  Overlap energy of the core charge distribution:               0.00000971626839
  Self energy of the core charge distribution:             -22442.43995950839599
  Core Hamiltonian energy:                                   6531.17276358185882
  Hartree energy:                                            9213.44165824674928
  Exchange-correlation energy:                              -2111.03119195625368

  Total energy:                                             -8808.85671991977142

 ENERGY| Total FORCE_EVAL ( QS ) energy [a.u.]:            -8808.858095703166327

 MD| ***************************************************************************
 MD| Step number                                                               6
 MD| Time [fs]                                                          3.000000
 MD| Conserved quantity [hartree]                            -0.880617011175E+04
 MD| ---------------------------------------------------------------------------
 MD|                                          Instantaneous             Averages
 MD| CPU time per MD step [s]                      7.251463            19.072035
 MD| Energy drift per atom [K]          -0.832516145679E+02  -0.689739282598E+02
 MD| Potential energy [hartree]         -0.880885809570E+04  -0.880870643831E+04
 MD| Kinetic energy [hartree]            0.268798395435E+01   0.254037364805E+01
 MD| Temperature [K]                             368.641558           348.397652
 MD| ***************************************************************************

 Number of electrons:                                                       4096
 Number of occupied orbitals:                                               2048
 Number of molecular orbitals:                                              2048

 Number of orbital functions:                                              20480
 Number of independent orbital functions:                                  20480

 Extrapolation method: PS Nth order
 Extrapolation order:  3


 SCF WAVEFUNCTION OPTIMIZATION

  ----------------------------------- OT ---------------------------------------
  Minimizer      : DIIS                : direct inversion
                                         in the iterative subspace
                                         using   7 DIIS vectors
                                         safer DIIS on
  Preconditioner : FULL_KINETIC        : inversion of T + eS
  Precond_solver : DEFAULT
  stepsize       :    0.15000000                  energy_gap     :    0.20000000
  eps_taylor     :   0.10000E-15                  max_taylor     :             4
  ----------------------------------- OT ---------------------------------------

  Step     Update method      Time    Convergence         Total energy    Change
  ------------------------------------------------------------------------------
     1 OT DIIS     0.15E+00    2.7     0.00004551     -8808.6384779098 -8.81E+03
     2 OT DIIS     0.15E+00    0.8     0.00003729     -8808.6502447226 -1.18E-02
     3 OT DIIS     0.15E+00    0.8     0.00002023     -8808.6710750065 -2.08E-02
     4 OT DIIS     0.15E+00    0.8     0.00001308     -8808.6771443876 -6.07E-03
     5 OT DIIS     0.15E+00    0.8     0.00000755     -8808.6802138470 -3.07E-03

  *** SCF run converged in     5 steps ***


  Electronic density on regular grids:      -4096.0000050933       -0.0000050933
  Core density on regular grids:             4095.9999999989       -0.0000000011
  Total charge density on r-space grids:       -0.0000050945
  Total charge density g-space grids:          -0.0000050945

  Overlap energy of the core charge distribution:               0.00000622092607
  Self energy of the core charge distribution:             -22442.43995950839599
  Core Hamiltonian energy:                                   6517.03118155382981
  Hartree energy:                                            9223.86272707167882
  Exchange-correlation energy:                              -2107.13416918505027

  Total energy:                                             -8808.68021384701206

 ENERGY| Total FORCE_EVAL ( QS ) energy [a.u.]:            -8808.681147292667447

 MD| ***************************************************************************
 MD| Step number                                                               7
 MD| Time [fs]                                                          3.500000
 MD| Conserved quantity [hartree]                            -0.880616595584E+04
 MD| ---------------------------------------------------------------------------
 MD|                                          Instantaneous             Averages
 MD| CPU time per MD step [s]                      7.200928            17.376162
 MD| Energy drift per atom [K]          -0.823972332119E+02  -0.708915432530E+02
 MD| Potential energy [hartree]         -0.880868114729E+04  -0.880870282531E+04
 MD| Kinetic energy [hartree]            0.251519144987E+01   0.253677619117E+01
 MD| Temperature [K]                             344.944058           347.904282
 MD| ***************************************************************************

 Number of electrons:                                                       4096
 Number of occupied orbitals:                                               2048
 Number of molecular orbitals:                                              2048

 Number of orbital functions:                                              20480
 Number of independent orbital functions:                                  20480

 Extrapolation method: PS Nth order
 Extrapolation order:  3


 SCF WAVEFUNCTION OPTIMIZATION

  ----------------------------------- OT ---------------------------------------
  Minimizer      : DIIS                : direct inversion
                                         in the iterative subspace
                                         using   7 DIIS vectors
                                         safer DIIS on
  Preconditioner : FULL_KINETIC        : inversion of T + eS
  Precond_solver : DEFAULT
  stepsize       :    0.15000000                  energy_gap     :    0.20000000
  eps_taylor     :   0.10000E-15                  max_taylor     :             4
  ----------------------------------- OT ---------------------------------------

  Step     Update method      Time    Convergence         Total energy    Change
  ------------------------------------------------------------------------------
     1 OT DIIS     0.15E+00    2.7     0.00004639     -8808.4083572053 -8.81E+03
     2 OT DIIS     0.15E+00    0.8     0.00003771     -8808.4205241797 -1.22E-02
     3 OT DIIS     0.15E+00    0.8     0.00002094     -8808.4409409456 -2.04E-02
     4 OT DIIS     0.15E+00    0.8     0.00001360     -8808.4479497194 -7.01E-03
     5 OT DIIS     0.15E+00    0.8     0.00001073     -8808.4504245994 -2.47E-03
     6 OT DIIS     0.15E+00    0.8     0.00000737     -8808.4530064678 -2.58E-03

  *** SCF run converged in     6 steps ***


  Electronic density on regular grids:      -4096.0000038467       -0.0000038467
  Core density on regular grids:             4096.0000000008        0.0000000008
  Total charge density on r-space grids:       -0.0000038458
  Total charge density g-space grids:          -0.0000038458

  Overlap energy of the core charge distribution:               0.00000436187317
  Self energy of the core charge distribution:             -22442.43995950839599
  Core Hamiltonian energy:                                   6506.06509061936958
  Hartree energy:                                            9232.01158828141342
  Exchange-correlation energy:                              -2104.08973022201280

  Total energy:                                             -8808.45300646775104

 ENERGY| Total FORCE_EVAL ( QS ) energy [a.u.]:            -8808.454570968091502

 MD| ***************************************************************************
 MD| Step number                                                               8
 MD| Time [fs]                                                          4.000000
 MD| Conserved quantity [hartree]                            -0.880616114901E+04
 MD| ---------------------------------------------------------------------------
 MD|                                          Instantaneous             Averages
 MD| CPU time per MD step [s]                      8.177911            16.226381
 MD| Energy drift per atom [K]          -0.814090335667E+02  -0.722062295422E+02
 MD| Potential energy [hartree]         -0.880845457097E+04  -0.880867179351E+04
 MD| Kinetic energy [hartree]            0.229342195405E+01   0.250635691153E+01
 MD| Temperature [K]                             314.529646           343.732452
 MD| ***************************************************************************

 Number of electrons:                                                       4096
 Number of occupied orbitals:                                               2048
 Number of molecular orbitals:                                              2048

 Number of orbital functions:                                              20480
 Number of independent orbital functions:                                  20480

 Extrapolation method: PS Nth order
 Extrapolation order:  3


 SCF WAVEFUNCTION OPTIMIZATION

  ----------------------------------- OT ---------------------------------------
  Minimizer      : DIIS                : direct inversion
                                         in the iterative subspace
                                         using   7 DIIS vectors
                                         safer DIIS on
  Preconditioner : FULL_KINETIC        : inversion of T + eS
  Precond_solver : DEFAULT
  stepsize       :    0.15000000                  energy_gap     :    0.20000000
  eps_taylor     :   0.10000E-15                  max_taylor     :             4
  ----------------------------------- OT ---------------------------------------

  Step     Update method      Time    Convergence         Total energy    Change
  ------------------------------------------------------------------------------
     1 OT DIIS     0.15E+00    2.7     0.00004050     -8808.2147004092 -8.81E+03
     2 OT DIIS     0.15E+00    0.8     0.00003407     -8808.2241613150 -9.46E-03
     3 OT DIIS     0.15E+00    0.8     0.00001718     -8808.2450175920 -2.09E-02
     4 OT DIIS     0.15E+00    0.8     0.00001245     -8808.2495170831 -4.50E-03
     5 OT DIIS     0.15E+00    0.8     0.00000891     -8808.2522158689 -2.70E-03

  *** SCF run converged in     5 steps ***


  Electronic density on regular grids:      -4096.0000022243       -0.0000022243
  Core density on regular grids:             4096.0000000016        0.0000000016
  Total charge density on r-space grids:       -0.0000022226
  Total charge density g-space grids:          -0.0000022226

  Overlap energy of the core charge distribution:               0.00000353692267
  Self energy of the core charge distribution:             -22442.43995950839599
  Core Hamiltonian energy:                                   6498.75941497355780
  Hartree energy:                                            9237.49749373826307
  Exchange-correlation energy:                              -2102.06916860924684

  Total energy:                                             -8808.25221586889893

 ENERGY| Total FORCE_EVAL ( QS ) energy [a.u.]:            -8808.253873199479131

 MD| ***************************************************************************
 MD| Step number                                                               9
 MD| Time [fs]                                                          4.500000
 MD| Conserved quantity [hartree]                            -0.880615635386E+04
 MD| ---------------------------------------------------------------------------
 MD|                                          Instantaneous             Averages
 MD| CPU time per MD step [s]                      7.211086            15.224681
 MD| Energy drift per atom [K]          -0.804232344922E+02  -0.731192300922E+02
 MD| Potential energy [hartree]         -0.880825387320E+04  -0.880862535792E+04
 MD| Kinetic energy [hartree]            0.209751933726E+01   0.246093051439E+01
 MD| Temperature [K]                             287.662728           337.502483
 MD| ***************************************************************************

 Number of electrons:                                                       4096
 Number of occupied orbitals:                                               2048
 Number of molecular orbitals:                                              2048

 Number of orbital functions:                                              20480
 Number of independent orbital functions:                                  20480

 Extrapolation method: PS Nth order
 Extrapolation order:  3


 SCF WAVEFUNCTION OPTIMIZATION

  ----------------------------------- OT ---------------------------------------
  Minimizer      : DIIS                : direct inversion
                                         in the iterative subspace
                                         using   7 DIIS vectors
                                         safer DIIS on
  Preconditioner : FULL_KINETIC        : inversion of T + eS
  Precond_solver : DEFAULT
  stepsize       :    0.15000000                  energy_gap     :    0.20000000
  eps_taylor     :   0.10000E-15                  max_taylor     :             4
  ----------------------------------- OT ---------------------------------------

  Step     Update method      Time    Convergence         Total energy    Change
  ------------------------------------------------------------------------------
     1 OT DIIS     0.15E+00    2.7     0.00004011     -8808.1037313447 -8.81E+03
     2 OT DIIS     0.15E+00    0.8     0.00003341     -8808.1129274023 -9.20E-03
     3 OT DIIS     0.15E+00    0.8     0.00002048     -8808.1296916255 -1.68E-02
     4 OT DIIS     0.15E+00    0.8     0.00001263     -8808.1379697707 -8.28E-03
     5 OT DIIS     0.15E+00    0.8     0.00001017     -8808.1402107933 -2.24E-03
     6 OT DIIS     0.15E+00    0.8     0.00000715     -8808.1425465202 -2.34E-03

  *** SCF run converged in     6 steps ***


  Electronic density on regular grids:      -4096.0000006753       -0.0000006753
  Core density on regular grids:             4096.0000000008        0.0000000008
  Total charge density on r-space grids:       -0.0000006745
  Total charge density g-space grids:          -0.0000006745

  Overlap energy of the core charge distribution:               0.00000340787600
  Self energy of the core charge distribution:             -22442.43995950839599
  Core Hamiltonian energy:                                   6495.52245929931541
  Hartree energy:                                            9239.94936252309708
  Exchange-correlation energy:                              -2101.17441224210506

  Total energy:                                             -8808.14254652021191

 ENERGY| Total FORCE_EVAL ( QS ) energy [a.u.]:            -8808.143947543281683

 MD| ***************************************************************************
 MD| Step number                                                              10
 MD| Time [fs]                                                          5.000000
 MD| Conserved quantity [hartree]                            -0.880615520655E+04
 MD| ---------------------------------------------------------------------------
 MD|                                          Instantaneous             Averages
 MD| CPU time per MD step [s]                      7.971348            14.499348
 MD| Energy drift per atom [K]          -0.801873666786E+02  -0.738260437508E+02
 MD| Potential energy [hartree]         -0.880814394754E+04  -0.880857721689E+04
 MD| Kinetic energy [hartree]            0.198874099597E+01   0.241371156255E+01
 MD| Temperature [K]                             272.744403           331.026675
 MD| ***************************************************************************

 -------------------------------------------------------------------------------
 -                                                                             -
 -                                DBCSR STATISTICS                             -
 -                                                                             -
 -------------------------------------------------------------------------------
 COUNTER                                    TOTAL       BLAS       SMM       ACC
 flops     9 x    32 x    32          13287555072     100.0%      0.0%      0.0%
 flops    22 x    32 x    32          16240345088     100.0%      0.0%      0.0%
 flops    40 x   128 x   128         187233730560     100.0%      0.0%      0.0%
 flops    40 x   128 x  1280         426141286400     100.0%      0.0%      0.0%
 flops    64 x   128 x   128         904090615808     100.0%      0.0%      0.0%
 flops   120 x   128 x   128        1123402383360     100.0%      0.0%      0.0%
 flops   147 x   128 x   128        1376167919616     100.0%      0.0%      0.0%
 flops   178 x   128 x   128        1666380201984     100.0%      0.0%      0.0%
 flops   200 x   128 x   128        1872337305600     100.0%      0.0%      0.0%
 flops   138 x   128 x   128        1937869111296     100.0%      0.0%      0.0%
 flops   120 x   128 x  1280        2556847718400     100.0%      0.0%      0.0%
 flops   147 x   128 x  1280        3132138455040     100.0%      0.0%      0.0%
 flops   178 x   128 x  1280        3792657448960     100.0%      0.0%      0.0%
 flops   200 x   128 x  1280        4261412864000     100.0%      0.0%      0.0%
 flops   138 x   128 x  1280        4410562314240     100.0%      0.0%      0.0%
 flops    64 x   128 x  1280        4864050462720     100.0%      0.0%      0.0%
 flops     9 x     9 x   128        5648350040064     100.0%      0.0%      0.0%
 flops     9 x    22 x   128        7855827369984     100.0%      0.0%      0.0%
 flops    22 x     9 x   128        7866447519744     100.0%      0.0%      0.0%
 flops    22 x    22 x   128       11004752822272     100.0%      0.0%      0.0%
 flops   191 x   128 x   128       11622533824512     100.0%      0.0%      0.0%
 flops    32 x   128 x   128       13561359237120     100.0%      0.0%      0.0%
 flops   169 x   128 x   128       15030187720704     100.0%      0.0%      0.0%
 flops     9 x    32 x     9       23722505551872     100.0%      0.0%      0.0%
 flops   160 x   128 x   128       26212722278400     100.0%      0.0%      0.0%
 flops   191 x   128 x  1280       26452720353280     100.0%      0.0%      0.0%
 flops    22 x    32 x     9       33153656684544     100.0%      0.0%      0.0%
 flops     9 x    32 x    22       33153656684544     100.0%      0.0%      0.0%
 flops   169 x   128 x  1280       34208491765760     100.0%      0.0%      0.0%
 flops    22 x    32 x    22       46115724689408     100.0%      0.0%      0.0%
 flops   160 x   128 x  1280       59659780096000     100.0%      0.0%      0.0%
 flops    32 x   128 x  1280       72960756940800     100.0%      0.0%      0.0%
 flops inhomo. stacks             152623038595072     100.0%      0.0%      0.0%
 flops total                       613.393332E+12     100.0%      0.0%      0.0%
 flops max/rank                      5.130561E+12     100.0%      0.0%      0.0%
 matmuls inhomo. stacks                   8592640     100.0%      0.0%      0.0%
 matmuls total                        12012911232     100.0%      0.0%      0.0%
 number of processed stacks              98887632     100.0%      0.0%      0.0%
 average stack size                                   121.5       0.0       0.0
 marketing flops                     1.147134E+15
 -------------------------------------------------------------------------------
 # multiplications                           2431
 max memory usage/rank               1.081295E+09
 # max total images/rank                        2
 # max 3D layers                                1
 # MPI messages exchanged                 9023872
 MPI messages size (bytes):
  total size                        19.341863E+12
  min size                           0.000000E+00
  max size                          26.214400E+06
  average size                       2.143410E+06
 MPI breakdown and total messages size (bytes):
             size <=      128               59312                        0
       128 < size <=     8192                   0                        0
      8192 < size <=    32768                1232                 40370176
     32768 < size <=   131072             2508800             328833433600
    131072 < size <=  4194304             5651968            8632213176320
   4194304 < size <= 16777216              558720            3988638972960
  16777216 < size                          243840            6392119296000
 -------------------------------------------------------------------------------

 *** WARNING in dbcsr_mm.F:294 :: Using a non-square number of MPI ranks ***
 *** might lead to poor performance. Used ranks: 128 Suggested: 121 256  ***

 -------------------------------------------------------------------------------
 -                                                                             -
 -                      DBCSR MESSAGE PASSING PERFORMANCE                      -
 -                                                                             -
 -------------------------------------------------------------------------------
 ROUTINE             CALLS      AVE VOLUME [Bytes]
 MP_Bcast               33                     12.
 MP_Allreduce        12995                     67.
 MP_Alltoall          9270                 362360.
 MP_ISend           153332                1015292.
 MP_IRecv           153332                1014810.
 -------------------------------------------------------------------------------

 -------------------------------------------------------------------------------
 -                                                                             -
 -                                GRID STATISTICS                              -
 -                                                                             -
 -------------------------------------------------------------------------------
 LP    KERNEL             BACKEND                              COUNT     PERCENT
 1     collocate ortho    REF                              135745301      21.21%
 1     integrate ortho    REF                              130493488      20.39%
 2     integrate ortho    REF                               88995618      13.90%
 2     collocate ortho    REF                               84560451      13.21%
 0     collocate ortho    REF                               75171698      11.74%
 0     integrate ortho    REF                               68664071      10.73%
 3     integrate ortho    REF                               26282166       4.11%
 3     collocate ortho    REF                               20755016       3.24%
 4     integrate ortho    REF                                3293394       0.51%
 0     collocate general  REF                                2162688       0.34%
 1     integrate general  REF                                2162688       0.34%
 4     collocate ortho    REF                                1638196       0.26%
 5     integrate ortho    REF                                 141925       0.02%
 -------------------------------------------------------------------------------

 MEMORY| Estimated peak process memory [MiB]                                1032

 -------------------------------------------------------------------------------
 -                                                                             -
 -                         MESSAGE PASSING PERFORMANCE                         -
 -                                                                             -
 -------------------------------------------------------------------------------

 ROUTINE             CALLS      AVE VOLUME [Bytes]
 MP_Group                4
 MP_Bcast             4017                  58286.
 MP_Allreduce        11014                   1476.
 MP_Sync               136
 MP_Alltoall          2210                3851979.
 MP_ISendRecv        64516                  31968.
 MP_Wait             87538
 MP_comm_split          66
 MP_ISend            20648                 112961.
 MP_IRecv            20648                 112961.
 -------------------------------------------------------------------------------


 -------------------------------------------------------------------------------
 -                                                                             -
 -                           R E F E R E N C E S                               -
 -                                                                             -
 -------------------------------------------------------------------------------
 
 CP2K version 8.2, the CP2K developers group (2021).
 CP2K is freely available from https://www.cp2k.org/ .

 Kuehne,Thomas D.; Iannuzzi,Marcella; Del Ben,Mauro;
 Rybkin,Vladimir V.; Seewald,Patrick; Stein,Frederick; Laino,Teodoro;
 Khaliullin,Rustam Z.; Schuett,Ole; Schiffmann,Florian; Golze,Dorothea;
 Wilhelm,Jan; Chulkov,Sergey; Bani-Hashemian,Mohammad Hossein;
 Weber,Valery; Borstnik,Urban; Taillefumier,Mathieu;
 Jakobovits,Alice Shoshana; Lazzaro,Alfio; Pabst,Hans; Mueller,Tiziano;
 Schade,Robert; Guidon,Manuel; Andermatt,Samuel; Holmberg,Nico;
 Schenter,Gregory K.; Hehn,Anna; Bussy,Augustin; Belleflamme,Fabian;
 Tabacchi,Gloria; Gloess,Andreas; Lass,Michael; Bethune,Iain;
 Mundy,Christopher J.; Plessl,Christian; Watkins,Matt;
 VandeVondele,Joost; Krack,Matthias; Hutter,Juerg. 
 The Journal of Chemical Physics, 152 (19), (2020). 
 CP2K: An electronic structure and molecular dynamics software package -
 Quickstep: Efficient and accurate electronic structure calculations.
 https://doi.org/10.1063/5.0007045

 Schuett, Ole; Messmer, Peter; Hutter, Juerg; VandeVondele, Joost. 
 Electronic Structure Calculations on Graphics Processing Units, John
 Wiley & Sons, Ltd, 173-190 (2016). 
 GPU-Accelerated Sparse Matrix-Matrix Multiplication for
 Linear Scaling Density Functional Theory.
 https://doi.org/10.1002/9781118670712.ch8

 Borstnik, U; VandeVondele, J; Weber, V; Hutter, J. 
 PARALLEL COMPUTING, 40 (5-6), 47-58 (2014). 
 Sparse matrix multiplication: The distributed block-compressed sparse
 row library.
 https://doi.org/10.1016/j.parco.2014.03.012

 Hutter, J; Iannuzzi, M; Schiffmann, F; VandeVondele, J. 
 WIREs Comput Mol Sci., 4 (1), 15-25 (2014). 
 CP2K: atomistic simulations of condensed matter systems.
 https://doi.org/10.1002/wcms.1159

 Marek, A; Blum, V; Johanni, R; Havu, V; Lang, B; Auckenthaler, T;
 Heinecke, A; Bungartz, H; Lederer, H. 
 Journal of Physics: Condensed Matter, 26 (21), (2014). 
 The ELPA library: scalable parallel eigenvalue solutions for
 electronic structure
 theory and computational science.
 https://doi.org/10.1088/0953-8984/26/21/213201

 Krack, M. 
 THEORETICAL CHEMISTRY ACCOUNTS, 114 (1-3), 145-152 (2005). 
 Pseudopotentials for H to Kr optimized for gradient-corrected
 exchange-correlation functionals.
 https://doi.org/10.1007/s00214-005-0655-y

 VandeVondele, J; Krack, M; Mohamed, F; Parrinello, M; Chassaing, T;
 Hutter, J. COMPUTER PHYSICS COMMUNICATIONS, 167 (2), 103-128 (2005). 
 QUICKSTEP: Fast and accurate density functional calculations using a
 mixed Gaussian and plane waves approach.
 https://doi.org/10.1016/j.cpc.2004.12.014

 Frigo, M; Johnson, SG. 
 PROCEEDINGS OF THE IEEE, 93 (2), 216-231 (2005). 
 The design and implementation of FFTW3.
 https://doi.org/10.1109/JPROC.2004.840301

 VandeVondele, J; Hutter, J. 
 JOURNAL OF CHEMICAL PHYSICS, 118 (10), 4365-4369 (2003). 
 An efficient orbital transformation method for electronic structure
 calculations.
 https://doi.org/10.1063/1.1543154

 Hartwigsen, C; Goedecker, S; Hutter, J. 
 PHYSICAL REVIEW B, 58 (7), 3641-3662 (1998). 
 Relativistic separable dual-space Gaussian pseudopotentials from H to Rn.
 https://doi.org/10.1103/PhysRevB.58.3641

 Lippert, G; Hutter, J; Parrinello, M. 
 MOLECULAR PHYSICS, 92 (3), 477-487 (1997). 
 A hybrid Gaussian and plane wave density functional scheme.
 https://doi.org/10.1080/002689797170220

 Goedecker, S; Teter, M; Hutter, J. 
 PHYSICAL REVIEW B, 54 (3), 1703-1710 (1996). 
 Separable dual-space Gaussian pseudopotentials.
 https://doi.org/10.1103/PhysRevB.54.1703


 -------------------------------------------------------------------------------
 -                                                                             -
 -                                T I M I N G                                  -
 -                                                                             -
 -------------------------------------------------------------------------------
 SUBROUTINE                       CALLS  ASD         SELF TIME        TOTAL TIME
                                MAXIMUM       AVERAGE  MAXIMUM  AVERAGE  MAXIMUM
 CP2K                                 1  1.0    0.369    0.481  148.249  148.304
 qs_mol_dyn_low                       1  2.0    0.003    0.004  145.443  145.478
 qs_forces                           11  3.9    0.004    0.004  145.009  145.254
 qs_energies                         11  4.9    0.001    0.001  143.075  143.335
 scf_env_do_scf                      11  5.9    0.001    0.001  130.377  130.378
 scf_env_do_scf_inner_loop          116  6.6    0.003    0.008  109.243  109.246
 qs_scf_new_mos                     116  7.6    0.001    0.001   91.545   91.900
 qs_scf_loop_do_ot                  116  8.6    0.001    0.001   91.544   91.899
 velocity_verlet                     10  3.0    0.001    0.001   88.428   88.429
 ot_scf_mini                        116  9.6    0.003    0.004   88.026   88.406
 dbcsr_multiply_generic            2431 12.5    0.154    0.167   80.222   84.121
 multiply_cannon                   2431 13.5    0.217    0.234   62.823   69.464
 multiply_cannon_loop              2431 14.5    0.421    0.454   60.879   67.551
 ot_mini                            116 10.6    0.001    0.001   53.439   53.978
 mp_waitall_1                    339162 16.1   29.077   42.215   29.077   42.215
 multiply_cannon_metrocomm3       38896 15.5    0.081    0.091   24.106   36.787
 multiply_cannon_multrec          38896 15.5   26.130   30.685   26.150   30.705
 multiply_cannon_metrocomm4       36465 15.5    0.085    0.093    9.214   28.391
 mp_irecv_dv                      96285 16.1    9.161   28.288    9.161   28.288
 apply_preconditioner_dbcsr         127 12.6    0.000    0.000   24.875   27.976
 apply_single                       127 13.6    0.000    0.000   24.874   27.976
 ot_diis_step                       116 11.6    0.006    0.007   27.098   27.099
 qs_ot_get_derivative               116 11.6    0.001    0.001   25.969   26.336
 qs_ot_get_p                        127 10.4    0.001    0.001   21.553   22.275
 init_scf_loop                       11  6.9    0.000    0.000   21.069   21.071
 prepare_preconditioner              11  7.9    0.000    0.000   19.040   19.090
 make_preconditioner                 11  8.9    0.000    0.000   19.040   19.090
 make_full_inverse_cholesky          11  9.9    0.000    0.000   18.518   18.582
 qs_ot_p2m_diag                      66 11.2    0.112    0.121   16.150   16.182
 cp_dbcsr_syevd                      66 12.2    0.004    0.004   15.307   15.313
 cp_fm_diag_elpa                     66 13.2    0.000    0.001   15.165   15.169
 cp_fm_redistribute_end              66 14.2   10.818   15.056   10.848   15.062
 cp_fm_diag_elpa_base                66 14.2    4.158   14.799    4.198   14.947
 rebuild_ks_matrix                  127  8.3    0.001    0.001   12.881   13.502
 qs_ks_build_kohn_sham_matrix       127  9.3    0.015    0.016   12.880   13.501
 qs_ks_update_qs_env                127  7.6    0.001    0.002   11.722   12.292
 cp_fm_cholesky_invert               11 10.9   11.941   11.949   11.941   11.949
 make_m2s                          4862 13.5    0.096    0.103    9.294    9.890
 qs_ot_get_derivative_diag           62 12.2    0.002    0.002    9.382    9.615
 mp_sum_l                         11831 13.4    6.195    8.985    6.195    8.985
 init_scf_run                        11  5.9    0.000    0.001    8.558    8.558
 scf_env_initial_rho_setup           11  6.9    0.000    0.000    8.557    8.558
 qs_rho_update_rho                  127  7.7    0.001    0.001    7.743    7.945
 calculate_rho_elec                 127  8.7    0.071    0.076    7.742    7.945
 wfi_extrapolate                     11  7.9    0.001    0.001    7.447    7.447
 make_images                       4862 14.5    1.116    1.492    6.755    7.186
 mp_sum_d                          4424 12.1    4.601    6.823    4.601    6.823
 dbcsr_dot_sd                      1303 12.0    0.574    0.624    4.508    6.602
 qs_ot_get_derivative_taylor         54 13.0    0.001    0.002    6.271    6.428
 qs_ot_get_orbitals                 116 10.6    0.001    0.001    6.052    6.290
 cp_fm_cholesky_decompose            22 10.9    5.712    5.771    5.712    5.771
 cp_gemm                             81  9.0    0.000    0.000    4.848    4.890
 cp_gemm_fm_gemm                     81 10.0    0.001    0.001    4.848    4.890
 cp_fm_gemm                          81 11.0    4.847    4.888    4.847    4.888
 sum_up_and_integrate               127 10.3    0.023    0.027    4.456    4.474
 integrate_v_rspace                 127 11.3    0.003    0.004    4.433    4.451
 make_images_data                  4862 15.5    0.047    0.054    3.832    4.413
 rs_pw_transfer                    1038 11.9    0.009    0.010    3.871    4.267
 hybrid_alltoall_any               5031 16.4    0.088    0.516    3.517    4.169
 calculate_dm_sparse                127  9.5    0.001    0.001    3.893    4.090
 grid_collocate_task_list           127  9.7    3.650    3.794    3.650    3.794
 dbcsr_make_dense_low              8334 15.6    0.050    0.055    2.942    3.680
 make_dense_data                   8334 16.6    2.590    3.354    2.878    3.611
 density_rs2pw                      127  9.7    0.004    0.004    3.199    3.337
 pw_transfer                       1535 11.6    0.042    0.083    3.083    3.223
 fft_wrap_pw1pw2                   1281 12.7    0.006    0.006    3.020    3.162
 cp_dbcsr_sm_fm_multiply             37  9.5    0.002    0.002    3.042    3.054
 dbcsr_make_images_dense           4236 14.8    0.042    0.045    2.331    3.023
 -------------------------------------------------------------------------------

 The number of warnings for this run is : 2
 
 -------------------------------------------------------------------------------
  **** **** ******  **  PROGRAM ENDED AT                 2022-01-20 10:41:32.478
 ***** ** ***  *** **   PROGRAM RAN ON                                 nid001103
 **    ****   ******    PROGRAM RAN BY                                    hjudge
 ***** **    ** ** **   PROGRAM PROCESS ID                                128647
  **** **  *******  **  PROGRAM STOPPED IN /mnt/lustre/a2fs-work2/work/z19/z19/h
                                           judge/CUG/archer2/CPU/CP2K/H2O-512/16
                                           NODES/128CPN/16THREADS
