 DBCSR| CPU Multiplication driver                                           BLAS
 DBCSR| Multrec recursion limit                                              512
 DBCSR| Multiplication stack size                                           1000
 DBCSR| Maximum elements for images                                    UNLIMITED
 DBCSR| Multiplicative factor virtual images                                   1
 DBCSR| Use multiplication densification                                       T
 DBCSR| Multiplication size stacks                                             3
 DBCSR| Use memory pool for CPU allocation                                     F
 DBCSR| Number of 3D layers                                               SINGLE
 DBCSR| Use MPI memory allocation                                              F
 DBCSR| Use RMA algorithm                                                      F
 DBCSR| Use Communication thread                                               T
 DBCSR| Communication thread load                                             30
 DBCSR| MPI: My node id                                                        0
 DBCSR| MPI: Number of nodes                                                  64
 DBCSR| OMP: Current number of threads                                        16
 DBCSR| OMP: Max number of threads                                            16
 DBCSR| Split modifier for TAS multiplication algorithm                  1.0E+00


  **** **** ******  **  PROGRAM STARTED AT               2022-01-17 17:00:56.278
 ***** ** ***  *** **   PROGRAM STARTED ON                             nid005043
 **    ****   ******    PROGRAM STARTED BY                                hjudge
 ***** **    ** ** **   PROGRAM PROCESS ID                                102431
  **** **  *******  **  PROGRAM STARTED IN /mnt/lustre/a2fs-work2/work/z19/z19/h
                                           judge/CUG/archer2/CPU/CP2K/H2O-512/8N
                                           ODES/128CPN/16THREADS

 CP2K| version string:                                          CP2K version 8.2
 CP2K| source code revision number:                                  git:310b7ab
 CP2K| cp2kflags: omp libint fftw3 libxc elpa parallel mpi3 scalapack plumed2   
 CP2K| is freely available from                            https://www.cp2k.org/
 CP2K| Program compiled at                          Thu Dec  2 10:30:45 GMT 2021
 CP2K| Program compiled on                                                  ln02
 CP2K| Program compiled for                                              ARCHER2
 CP2K| Data directory path         /work/y07/shared/apps/core/cp2k/cp2k-8.2/data
 CP2K| Input file name                                               H2O-512.inp

 GLOBAL| Force Environment number                                              1
 GLOBAL| Basis set file name                                      GTH_BASIS_SETS
 GLOBAL| Potential file name                                           POTENTIAL
 GLOBAL| MM Potential file name                                     MM_POTENTIAL
 GLOBAL| Coordinate file name                                      __STD_INPUT__
 GLOBAL| Method name                                                        CP2K
 GLOBAL| Project name                                                    H2O-512
 GLOBAL| Run type                                                             MD
 GLOBAL| FFT library                                                       FFTW3
 GLOBAL| Diagonalization library                                            ELPA
 GLOBAL| Minimum number of eigenvectors for ELPA usage                        16
 GLOBAL| Orthonormality check for eigenvectors                          DISABLED
 GLOBAL| Matrix multiplication library                                    SCALAP
 GLOBAL| All-to-all communication in single precision                          F
 GLOBAL| FFTs using library dependent lengths                                  F
 GLOBAL| Grid backend                                                       AUTO
 GLOBAL| Global print level                                                  LOW
 GLOBAL| MPI I/O enabled                                                       T
 GLOBAL| Total number of message passing processes                            64
 GLOBAL| Number of threads for this process                                   16
 GLOBAL| This output is from process                                           0
 GLOBAL| CPU model name                          AMD EPYC 7742 64-Core Processor
 GLOBAL| CPUID                                                              1002

 MEMORY| system memory details [Kb]
 MEMORY|                        rank 0           min           max       average
 MEMORY| MemTotal            263528088     263528084     263528088     263528087
 MEMORY| MemFree             253517200     252155388     253517200     252840259
 MEMORY| Buffers                 25104         17384         26560         21268
 MEMORY| Cached                 604348        604348       1460984        968803
 MEMORY| Slab                  1593596       1593596       1660704       1625776
 MEMORY| SReclaimable            93580         83168         93580         88469
 MEMORY| MemLikelyFree       254240232     253382136     254240232     253918800


 GENERATE|  Preliminary Number of Bonds generated:                             0
 GENERATE|  Achieved consistency in connectivity generation.

 *******************************************************************************
 *******************************************************************************
 **                                                                           **
 **     #####                         ##              ##                      **
 **    ##   ##            ##          ##              ##                      **
 **   ##     ##                       ##            ######                    **
 **   ##     ##  ##   ##  ##   #####  ##  ##   ####   ##    #####    #####    **
 **   ##     ##  ##   ##  ##  ##      ## ##   ##      ##   ##   ##  ##   ##   **
 **   ##  ## ##  ##   ##  ##  ##      ####     ###    ##   ######   ######    **
 **    ##  ###   ##   ##  ##  ##      ## ##      ##   ##   ##       ##        **
 **     #######   #####   ##   #####  ##  ##  ####    ##    #####   ##        **
 **           ##                                                    ##        **
 **                                                                           **
 **                                                ... make the atoms dance   **
 **                                                                           **
 **            Copyright (C) by CP2K developers group (2000-2021)             **
 **                      J. Chem. Phys. 152, 194103 (2020)                    **
 **                                                                           **
 *******************************************************************************


 TOTAL NUMBERS AND MAXIMUM NUMBERS

  Total number of            - Atomic kinds:                                   2
                             - Atoms:                                       1536
                             - Shell sets:                                  3072
                             - Shells:                                      9216
                             - Primitive Cartesian functions:              10752
                             - Cartesian basis functions:                  21504
                             - Spherical basis functions:                  20480

  Maximum angular momentum of- Orbital basis functions:                        2
                             - Local part of the GTH pseudopotential:          2
                             - Non-local part of the GTH pseudopotential:      0


 SCF PARAMETERS         Density guess:                                    ATOMIC
                        --------------------------------------------------------
                        max_scf:                                              50
                        max_scf_history:                                       0
                        max_diis:                                              4
                        --------------------------------------------------------
                        eps_scf:                                        1.00E-05
                        eps_scf_history:                                0.00E+00
                        eps_diis:                                       1.00E-01
                        eps_eigval:                                     1.00E-05
                        --------------------------------------------------------
                        level_shift [a.u.]:                                 0.00
                        --------------------------------------------------------
                        No outer SCF

 MD_PAR| Molecular dynamics protocol (MD input parameters)
 MD_PAR| Ensemble type                                                       NVE
 MD_PAR| Number of time steps                                                 10
 MD_PAR| Time step [fs]                                                 0.500000
 MD_PAR| Temperature [K]                                              300.000000
 MD_PAR| Temperature tolerance [K]                                      0.000000
 MD_PAR| Print MD information every                                    1 step(s)
 MD_PAR| File type   Print frequency [steps]                          File names
 MD_PAR| Coordinates          1                                H2O-512-pos-1.xyz
 MD_PAR| Velocities           1                                H2O-512-vel-1.xyz
 MD_PAR| Energies             1                                   H2O-512-1.ener
 MD_PAR| Dump                20                                H2O-512-1.restart

 ROT| Rotational analysis information
 ROT| Principal axes and moments of inertia [a.u.]
 ROT|                           1                   2                   3
 ROT| Eigenvalues      6.12011925703E+09   6.17734003456E+09   6.32378668800E+09
 ROT|      x              0.229702356692      0.883899672739      0.407379670409
 ROT|      y              0.711719446246      0.132949289019     -0.689768016354
 ROT|      z              0.663846561462     -0.448381372362      0.598549820611
 ROT| Number of rotovibrational vectors                                        6

 DOF| Calculation of degrees of freedom
 DOF| Number of atoms                                                       1536
 DOF| Number of intramolecular constraints                                     0
 DOF| Number of intermolecular constraints                                     0
 DOF| Invariants (translations + rotations)                                    3
 DOF| Degrees of freedom                                                    4605

 DOF| Restraints information
 DOF| Number of intramolecular restraints                                      0
 DOF| Number of intermolecular restraints                                      0

 MD_VEL| Velocities initialization
 MD_VEL| Initial temperature [K]                                      300.000000
 MD_VEL| COM velocity             0.0000000000    -0.0000000000     0.0000000000

 Number of electrons:                                                       4096
 Number of occupied orbitals:                                               2048
 Number of molecular orbitals:                                              2048

 Number of orbital functions:                                              20480
 Number of independent orbital functions:                                  20480

 Extrapolation method: initial_guess


 SCF WAVEFUNCTION OPTIMIZATION

  ----------------------------------- OT ---------------------------------------
  Minimizer      : DIIS                : direct inversion
                                         in the iterative subspace
                                         using   7 DIIS vectors
                                         safer DIIS on
  Preconditioner : FULL_KINETIC        : inversion of T + eS
  Precond_solver : DEFAULT
  stepsize       :    0.15000000                  energy_gap     :    0.20000000
  eps_taylor     :   0.10000E-15                  max_taylor     :             4
  ----------------------------------- OT ---------------------------------------

  Step     Update method      Time    Convergence         Total energy    Change
  ------------------------------------------------------------------------------
     1 OT DIIS     0.15E+00    4.6     0.00467324     -8480.4728425690 -8.48E+03
     2 OT DIIS     0.15E+00    1.2     0.00318266     -8587.4488310143 -1.07E+02
     3 OT DIIS     0.15E+00    1.2     0.00347210     -8644.7931966768 -5.73E+01
     4 OT DIIS     0.15E+00    1.2     0.00204380     -8678.2157923836 -3.34E+01
     5 OT DIIS     0.15E+00    1.2     0.00148292     -8717.4624183879 -3.92E+01
     6 OT DIIS     0.15E+00    1.2     0.00119954     -8738.7795043572 -2.13E+01
     7 OT DIIS     0.15E+00    1.2     0.00099038     -8755.0185947301 -1.62E+01
     8 OT DIIS     0.15E+00    1.2     0.00079894     -8767.5347825454 -1.25E+01
     9 OT DIIS     0.15E+00    1.2     0.00061581     -8780.1862563835 -1.27E+01
    10 OT DIIS     0.15E+00    1.2     0.00048147     -8788.6147471042 -8.43E+00
    11 OT DIIS     0.15E+00    1.2     0.00038278     -8794.1215228889 -5.51E+00
    12 OT DIIS     0.15E+00    1.2     0.00031960     -8797.5363589594 -3.41E+00
    13 OT DIIS     0.15E+00    1.2     0.00026435     -8799.9344030908 -2.40E+00
    14 OT DIIS     0.15E+00    1.2     0.00023004     -8801.7089305035 -1.77E+00
    15 OT DIIS     0.15E+00    1.2     0.00019592     -8803.0697888564 -1.36E+00
    16 OT DIIS     0.15E+00    1.2     0.00016642     -8804.2000843411 -1.13E+00
    17 OT DIIS     0.15E+00    1.2     0.00014164     -8805.0506655806 -8.51E-01
    18 OT DIIS     0.15E+00    1.2     0.00012638     -8805.6725421207 -6.22E-01
    19 OT DIIS     0.15E+00    1.2     0.00010717     -8806.2171485645 -5.45E-01
    20 OT DIIS     0.15E+00    1.2     0.00009868     -8806.5290018963 -3.12E-01
    21 OT DIIS     0.15E+00    1.2     0.00008484     -8806.8772741195 -3.48E-01
    22 OT DIIS     0.15E+00    1.2     0.00007717     -8807.0943334427 -2.17E-01
    23 OT DIIS     0.15E+00    1.2     0.00006815     -8807.2974129499 -2.03E-01
    24 OT DIIS     0.15E+00    1.2     0.00006019     -8807.4529078233 -1.55E-01
    25 OT DIIS     0.15E+00    1.2     0.00005010     -8807.5989834234 -1.46E-01
    26 OT DIIS     0.15E+00    1.2     0.00004000     -8807.6989662228 -1.00E-01
    27 OT DIIS     0.15E+00    1.2     0.00003462     -8807.7827122402 -8.37E-02
    28 OT DIIS     0.15E+00    1.2     0.00003071     -8807.7824932500  2.19E-04
    29 OT DIIS     0.15E+00    1.2     0.00002690     -8807.8200993195 -3.76E-02
    30 OT DIIS     0.15E+00    1.2     0.00002500     -8807.8399634016 -1.99E-02
    31 OT DIIS     0.15E+00    1.2     0.00002395     -8807.8566460922 -1.67E-02
    32 OT DIIS     0.15E+00    1.2     0.00002328     -8807.8682689643 -1.16E-02
    33 OT DIIS     0.15E+00    1.2     0.00002304     -8807.8827275965 -1.45E-02
    34 OT DIIS     0.15E+00    1.2     0.00002300     -8807.8854890296 -2.76E-03
    35 OT SD       0.15E+00    1.2     0.00002301     -8807.8907467596 -5.26E-03
    36 OT SD       0.15E+00    1.2     0.00002308     -8807.8940817096 -3.33E-03
    37 OT SD       0.15E+00    1.2     0.00002318     -8807.8974407043 -3.36E-03
    38 OT SD       0.15E+00    1.2     0.00002329     -8807.9008284718 -3.39E-03
    39 OT SD       0.15E+00    1.2     0.00002341     -8807.9042491083 -3.42E-03
    40 OT SD       0.15E+00    1.2     0.00002354     -8807.9077063659 -3.46E-03
    41 OT SD       0.15E+00    1.2     0.00002369     -8807.9112037365 -3.50E-03
    42 OT SD       0.15E+00    1.2     0.00002384     -8807.9147444866 -3.54E-03
    43 OT SD       0.15E+00    1.2     0.00002400     -8807.9183316715 -3.59E-03
    44 OT SD       0.15E+00    1.2     0.00002417     -8807.9219681410 -3.64E-03
    45 OT DIIS     0.15E+00    1.2     0.00002435     -8807.9256565391 -3.69E-03
    46 OT DIIS     0.15E+00    1.2     0.00004964     -8807.9134141676  1.22E-02
    47 OT SD       0.15E+00    1.2     0.00005090     -8807.9142465511 -8.32E-04
    48 OT SD       0.15E+00    1.2     0.00004015     -8807.9285128174 -1.43E-02
    49 OT SD       0.15E+00    1.2     0.00003559     -8807.9379946690 -9.48E-03
    50 OT SD       0.15E+00    1.2     0.00003336     -8807.9456740691 -7.68E-03

  Leaving inner SCF loop after reaching    50 steps.


  Electronic density on regular grids:      -4096.0000073885       -0.0000073885
  Core density on regular grids:             4095.9999999927       -0.0000000073
  Total charge density on r-space grids:       -0.0000073958
  Total charge density g-space grids:          -0.0000073958

  Overlap energy of the core charge distribution:               0.00004500798551
  Self energy of the core charge distribution:             -22442.43995950839599
  Core Hamiltonian energy:                                   6603.78896345818157
  Hartree energy:                                            9161.23631131819639
  Exchange-correlation energy:                              -2130.53103434506693

  Total energy:                                             -8807.94567406910028

 *** WARNING in qs_scf.F:576 :: SCF run NOT converged ***


 ENERGY| Total FORCE_EVAL ( QS ) energy [a.u.]:            -8807.952537542230857

 MD_INI| MD initialization
 MD_INI| Potential energy [hartree]                          -0.880795253754E+04
 MD_INI| Kinetic energy [hartree]                             0.218747769838E+01
 MD_INI| Temperature [K]                                              300.000000
 MD_INI| Cell volume [bohr^3]                                 1.037187315243E+05
 MD_INI| Cell volume [ang^3]                                  1.536953010365E+04
 MD_INI| Cell lengths [bohr]      4.69842608E+01  4.69842608E+01  4.69842608E+01
 MD_INI| Cell lengths [ang]       2.48630000E+01  2.48630000E+01  2.48630000E+01
 MD_INI| Cell angles [deg]        9.00000000E+01  9.00000000E+01  9.00000000E+01

 Number of electrons:                                                       4096
 Number of occupied orbitals:                                               2048
 Number of molecular orbitals:                                              2048

 Number of orbital functions:                                              20480
 Number of independent orbital functions:                                  20480

 Extrapolation method: PS Nth order
 Extrapolation order:  0


 SCF WAVEFUNCTION OPTIMIZATION

  ----------------------------------- OT ---------------------------------------
  Minimizer      : DIIS                : direct inversion
                                         in the iterative subspace
                                         using   7 DIIS vectors
                                         safer DIIS on
  Preconditioner : FULL_KINETIC        : inversion of T + eS
  Precond_solver : DEFAULT
  stepsize       :    0.15000000                  energy_gap     :    0.20000000
  eps_taylor     :   0.10000E-15                  max_taylor     :             4
  ----------------------------------- OT ---------------------------------------

  Step     Update method      Time    Convergence         Total energy    Change
  ------------------------------------------------------------------------------
     1 OT DIIS     0.15E+00    4.1     0.00010167     -8807.9545865970 -8.81E+03
     2 OT DIIS     0.15E+00    1.0     0.00007399     -8808.0093372137 -5.48E-02
     3 OT DIIS     0.15E+00    1.0     0.00005493     -8808.0647269010 -5.54E-02
     4 OT DIIS     0.15E+00    1.0     0.00004933     -8808.1021424499 -3.74E-02
     5 OT DIIS     0.15E+00    1.2     0.00004590     -8808.1450713244 -4.29E-02
     6 OT DIIS     0.15E+00    1.2     0.00004348     -8808.1872592442 -4.22E-02
     7 OT DIIS     0.15E+00    1.2     0.00003910     -8808.2476168652 -6.04E-02
     8 OT DIIS     0.15E+00    1.2     0.00002829     -8808.3274309659 -7.98E-02
     9 OT DIIS     0.15E+00    1.3     0.00002026     -8808.3586714876 -3.12E-02
    10 OT DIIS     0.15E+00    1.2     0.00001287     -8808.3785381969 -1.99E-02
    11 OT DIIS     0.15E+00    1.2     0.00001026     -8808.3792654198 -7.27E-04
    12 OT DIIS     0.15E+00    1.2     0.00000705     -8808.3828063340 -3.54E-03

  *** SCF run converged in    12 steps ***


  Electronic density on regular grids:      -4096.0000079114       -0.0000079114
  Core density on regular grids:             4095.9999999916       -0.0000000084
  Total charge density on r-space grids:       -0.0000079198
  Total charge density g-space grids:          -0.0000079198

  Overlap energy of the core charge distribution:               0.00004378132008
  Self energy of the core charge distribution:             -22442.43995950839599
  Core Hamiltonian energy:                                   6601.18532714026878
  Hartree energy:                                            9162.93994022730840
  Exchange-correlation energy:                              -2130.06815797445961

  Total energy:                                             -8808.38280633395698

 ENERGY| Total FORCE_EVAL ( QS ) energy [a.u.]:            -8808.383482600847856

 MD| ***************************************************************************
 MD| Step number                                                               1
 MD| Time [fs]                                                          0.500000
 MD| Conserved quantity [hartree]                            -0.880615757182E+04
 MD| ---------------------------------------------------------------------------
 MD|                                          Instantaneous             Averages
 MD| CPU time per MD step [s]                     83.093148            83.093148
 MD| Energy drift per atom [K]          -0.806935745521E+02   0.000000000000E+00
 MD| Potential energy [hartree]         -0.880838348260E+04  -0.880838348260E+04
 MD| Kinetic energy [hartree]            0.222591078260E+01   0.222591078260E+01
 MD| Temperature [K]                             305.270877           305.270877
 MD| ***************************************************************************

 Number of electrons:                                                       4096
 Number of occupied orbitals:                                               2048
 Number of molecular orbitals:                                              2048

 Number of orbital functions:                                              20480
 Number of independent orbital functions:                                  20480

 Extrapolation method: PS Nth order
 Extrapolation order:  1


 SCF WAVEFUNCTION OPTIMIZATION

  ----------------------------------- OT ---------------------------------------
  Minimizer      : DIIS                : direct inversion
                                         in the iterative subspace
                                         using   7 DIIS vectors
                                         safer DIIS on
  Preconditioner : FULL_KINETIC        : inversion of T + eS
  Precond_solver : DEFAULT
  stepsize       :    0.15000000                  energy_gap     :    0.20000000
  eps_taylor     :   0.10000E-15                  max_taylor     :             4
  ----------------------------------- OT ---------------------------------------

  Step     Update method      Time    Convergence         Total energy    Change
  ------------------------------------------------------------------------------
     1 OT DIIS     0.15E+00    4.3     0.00008001     -8808.4313093225 -8.81E+03
     2 OT DIIS     0.15E+00    0.9     0.00005271     -8808.4637448917 -3.24E-02
     3 OT DIIS     0.15E+00    0.9     0.00003321     -8808.4886504974 -2.49E-02
     4 OT DIIS     0.15E+00    0.9     0.00002251     -8808.5029459821 -1.43E-02
     5 OT DIIS     0.15E+00    1.0     0.00001407     -8808.5119293735 -8.98E-03
     6 OT DIIS     0.15E+00    1.1     0.00000837     -8808.5159229862 -3.99E-03

  *** SCF run converged in     6 steps ***


  Electronic density on regular grids:      -4096.0000084063       -0.0000084063
  Core density on regular grids:             4095.9999999941       -0.0000000059
  Total charge density on r-space grids:       -0.0000084122
  Total charge density g-space grids:          -0.0000084122

  Overlap energy of the core charge distribution:               0.00003948979201
  Self energy of the core charge distribution:             -22442.43995950839599
  Core Hamiltonian energy:                                   6592.75633665750956
  Hartree energy:                                            9168.97934469663778
  Exchange-correlation energy:                              -2127.81168432177947

  Total energy:                                             -8808.51592298623837

 ENERGY| Total FORCE_EVAL ( QS ) energy [a.u.]:            -8808.517234599257790

 MD| ***************************************************************************
 MD| Step number                                                               2
 MD| Time [fs]                                                          1.000000
 MD| Conserved quantity [hartree]                            -0.880616181916E+04
 MD| ---------------------------------------------------------------------------
 MD|                                          Instantaneous             Averages
 MD| CPU time per MD step [s]                     10.726470            46.909809
 MD| Energy drift per atom [K]          -0.815667537474E+02  -0.407833768737E+02
 MD| Potential energy [hartree]         -0.880851723460E+04  -0.880845035860E+04
 MD| Kinetic energy [hartree]            0.235541543800E+01   0.229066311030E+01
 MD| Temperature [K]                             323.031696           314.151286
 MD| ***************************************************************************

 Number of electrons:                                                       4096
 Number of occupied orbitals:                                               2048
 Number of molecular orbitals:                                              2048

 Number of orbital functions:                                              20480
 Number of independent orbital functions:                                  20480

 Extrapolation method: PS Nth order
 Extrapolation order:  2


 SCF WAVEFUNCTION OPTIMIZATION

  ----------------------------------- OT ---------------------------------------
  Minimizer      : DIIS                : direct inversion
                                         in the iterative subspace
                                         using   7 DIIS vectors
                                         safer DIIS on
  Preconditioner : FULL_KINETIC        : inversion of T + eS
  Precond_solver : DEFAULT
  stepsize       :    0.15000000                  energy_gap     :    0.20000000
  eps_taylor     :   0.10000E-15                  max_taylor     :             4
  ----------------------------------- OT ---------------------------------------

  Step     Update method      Time    Convergence         Total energy    Change
  ------------------------------------------------------------------------------
     1 OT DIIS     0.15E+00    4.2     0.00008987     -8808.3717471471 -8.81E+03
     2 OT DIIS     0.15E+00    0.9     0.00007426     -8808.4174388170 -4.57E-02
     3 OT DIIS     0.15E+00    1.0     0.00005876     -8808.4862005890 -6.88E-02
     4 OT DIIS     0.15E+00    1.0     0.00004979     -8808.5436835196 -5.75E-02
     5 OT DIIS     0.15E+00    1.1     0.00004006     -8808.6033835426 -5.97E-02
     6 OT DIIS     0.15E+00    1.2     0.00002840     -8808.6545533329 -5.12E-02
     7 OT DIIS     0.15E+00    1.2     0.00001854     -8808.6820981994 -2.75E-02
     8 OT DIIS     0.15E+00    1.2     0.00001252     -8808.6920690878 -9.97E-03
     9 OT DIIS     0.15E+00    1.3     0.00000891     -8808.6959106648 -3.84E-03

  *** SCF run converged in     9 steps ***


  Electronic density on regular grids:      -4096.0000081507       -0.0000081507
  Core density on regular grids:             4095.9999999985       -0.0000000015
  Total charge density on r-space grids:       -0.0000081522
  Total charge density g-space grids:          -0.0000081522

  Overlap energy of the core charge distribution:               0.00003222726706
  Self energy of the core charge distribution:             -22442.43995950839599
  Core Hamiltonian energy:                                   6579.97334419409344
  Hartree energy:                                            9178.11109089516503
  Exchange-correlation energy:                              -2124.34041847294930

  Total energy:                                             -8808.69591066481917

 ENERGY| Total FORCE_EVAL ( QS ) energy [a.u.]:            -8808.697758439364407

 MD| ***************************************************************************
 MD| Step number                                                               3
 MD| Time [fs]                                                          1.500000
 MD| Conserved quantity [hartree]                            -0.880616479879E+04
 MD| ---------------------------------------------------------------------------
 MD|                                          Instantaneous             Averages
 MD| CPU time per MD step [s]                     14.595386            36.138335
 MD| Energy drift per atom [K]          -0.821793131625E+02  -0.545820223033E+02
 MD| Potential energy [hartree]         -0.880869775844E+04  -0.880853282521E+04
 MD| Kinetic energy [hartree]            0.253295964922E+01   0.237142862327E+01
 MD| Temperature [K]                             347.380865           325.227813
 MD| ***************************************************************************

 Number of electrons:                                                       4096
 Number of occupied orbitals:                                               2048
 Number of molecular orbitals:                                              2048

 Number of orbital functions:                                              20480
 Number of independent orbital functions:                                  20480

 Extrapolation method: PS Nth order
 Extrapolation order:  3


 SCF WAVEFUNCTION OPTIMIZATION

  ----------------------------------- OT ---------------------------------------
  Minimizer      : DIIS                : direct inversion
                                         in the iterative subspace
                                         using   7 DIIS vectors
                                         safer DIIS on
  Preconditioner : FULL_KINETIC        : inversion of T + eS
  Precond_solver : DEFAULT
  stepsize       :    0.15000000                  energy_gap     :    0.20000000
  eps_taylor     :   0.10000E-15                  max_taylor     :             4
  ----------------------------------- OT ---------------------------------------

  Step     Update method      Time    Convergence         Total energy    Change
  ------------------------------------------------------------------------------
     1 OT DIIS     0.15E+00    4.1     0.00008300     -8808.7601011923 -8.81E+03
     2 OT DIIS     0.15E+00    0.9     0.00005686     -8808.7956190643 -3.55E-02
     3 OT DIIS     0.15E+00    1.0     0.00003614     -8808.8258140438 -3.02E-02
     4 OT DIIS     0.15E+00    1.0     0.00002270     -8808.8440346285 -1.82E-02
     5 OT DIIS     0.15E+00    1.0     0.00001489     -8808.8523329840 -8.30E-03
     6 OT DIIS     0.15E+00    1.1     0.00000969     -8808.8563577645 -4.02E-03

  *** SCF run converged in     6 steps ***


  Electronic density on regular grids:      -4096.0000085820       -0.0000085820
  Core density on regular grids:             4096.0000000009        0.0000000009
  Total charge density on r-space grids:       -0.0000085812
  Total charge density g-space grids:          -0.0000085812

  Overlap energy of the core charge distribution:               0.00002346614475
  Self energy of the core charge distribution:             -22442.43995950839599
  Core Hamiltonian energy:                                   6564.27157996711503
  Hartree energy:                                            9189.38286524958676
  Exchange-correlation energy:                              -2120.07086693896645

  Total energy:                                             -8808.85635776451454

 ENERGY| Total FORCE_EVAL ( QS ) energy [a.u.]:            -8808.858123999856616

 MD| ***************************************************************************
 MD| Step number                                                               4
 MD| Time [fs]                                                          2.000000
 MD| Conserved quantity [hartree]                            -0.880616980197E+04
 MD| ---------------------------------------------------------------------------
 MD|                                          Instantaneous             Averages
 MD| CPU time per MD step [s]                     10.906441            29.830361
 MD| Energy drift per atom [K]          -0.832078791711E+02  -0.617384865202E+02
 MD| Potential energy [hartree]         -0.880885812400E+04  -0.880861414991E+04
 MD| Kinetic energy [hartree]            0.268832202975E+01   0.245065197489E+01
 MD| Temperature [K]                             368.687923           336.092840
 MD| ***************************************************************************

 Number of electrons:                                                       4096
 Number of occupied orbitals:                                               2048
 Number of molecular orbitals:                                              2048

 Number of orbital functions:                                              20480
 Number of independent orbital functions:                                  20480

 Extrapolation method: PS Nth order
 Extrapolation order:  3


 SCF WAVEFUNCTION OPTIMIZATION

  ----------------------------------- OT ---------------------------------------
  Minimizer      : DIIS                : direct inversion
                                         in the iterative subspace
                                         using   7 DIIS vectors
                                         safer DIIS on
  Preconditioner : FULL_KINETIC        : inversion of T + eS
  Precond_solver : DEFAULT
  stepsize       :    0.15000000                  energy_gap     :    0.20000000
  eps_taylor     :   0.10000E-15                  max_taylor     :             4
  ----------------------------------- OT ---------------------------------------

  Step     Update method      Time    Convergence         Total energy    Change
  ------------------------------------------------------------------------------
     1 OT DIIS     0.15E+00    4.1     0.00005398     -8808.8521906324 -8.81E+03
     2 OT DIIS     0.15E+00    0.9     0.00004360     -8808.8685908848 -1.64E-02
     3 OT DIIS     0.15E+00    1.2     0.00002876     -8808.8948207182 -2.62E-02
     4 OT DIIS     0.15E+00    1.2     0.00002104     -8808.9082134170 -1.34E-02
     5 OT DIIS     0.15E+00    1.2     0.00001317     -8808.9185203833 -1.03E-02
     6 OT DIIS     0.15E+00    1.4     0.00000843     -8808.9223718793 -3.85E-03

  *** SCF run converged in     6 steps ***


  Electronic density on regular grids:      -4096.0000071800       -0.0000071800
  Core density on regular grids:             4095.9999999999       -0.0000000001
  Total charge density on r-space grids:       -0.0000071801
  Total charge density g-space grids:          -0.0000071801

  Overlap energy of the core charge distribution:               0.00001548084319
  Self energy of the core charge distribution:             -22442.43995950839599
  Core Hamiltonian energy:                                   6547.40961641441572
  Hartree energy:                                            9201.58656649163095
  Exchange-correlation energy:                              -2115.47861075776746

  Total energy:                                             -8808.92237187927276

 ENERGY| Total FORCE_EVAL ( QS ) energy [a.u.]:            -8808.923934945427391

 MD| ***************************************************************************
 MD| Step number                                                               5
 MD| Time [fs]                                                          2.500000
 MD| Conserved quantity [hartree]                            -0.880617229013E+04
 MD| ---------------------------------------------------------------------------
 MD|                                          Instantaneous             Averages
 MD| CPU time per MD step [s]                     11.870039            26.238297
 MD| Energy drift per atom [K]          -0.837194018425E+02  -0.661346695847E+02
 MD| Potential energy [hartree]         -0.880892393495E+04  -0.880867610692E+04
 MD| Kinetic energy [hartree]            0.275164481224E+01   0.251085054236E+01
 MD| Temperature [K]                             377.372279           344.348728
 MD| ***************************************************************************

 Number of electrons:                                                       4096
 Number of occupied orbitals:                                               2048
 Number of molecular orbitals:                                              2048

 Number of orbital functions:                                              20480
 Number of independent orbital functions:                                  20480

 Extrapolation method: PS Nth order
 Extrapolation order:  3


 SCF WAVEFUNCTION OPTIMIZATION

  ----------------------------------- OT ---------------------------------------
  Minimizer      : DIIS                : direct inversion
                                         in the iterative subspace
                                         using   7 DIIS vectors
                                         safer DIIS on
  Preconditioner : FULL_KINETIC        : inversion of T + eS
  Precond_solver : DEFAULT
  stepsize       :    0.15000000                  energy_gap     :    0.20000000
  eps_taylor     :   0.10000E-15                  max_taylor     :             4
  ----------------------------------- OT ---------------------------------------

  Step     Update method      Time    Convergence         Total energy    Change
  ------------------------------------------------------------------------------
     1 OT DIIS     0.15E+00    4.1     0.00004459     -8808.8152214351 -8.81E+03
     2 OT DIIS     0.15E+00    0.9     0.00003657     -8808.8265174710 -1.13E-02
     3 OT DIIS     0.15E+00    1.0     0.00002088     -8808.8466696217 -2.02E-02
     4 OT DIIS     0.15E+00    1.0     0.00001310     -8808.8539212641 -7.25E-03
     5 OT DIIS     0.15E+00    1.1     0.00000884     -8808.8567199708 -2.80E-03

  *** SCF run converged in     5 steps ***


  Electronic density on regular grids:      -4096.0000062625       -0.0000062625
  Core density on regular grids:             4095.9999999983       -0.0000000017
  Total charge density on r-space grids:       -0.0000062642
  Total charge density g-space grids:          -0.0000062642

  Overlap energy of the core charge distribution:               0.00000971625810
  Self energy of the core charge distribution:             -22442.43995950839599
  Core Hamiltonian energy:                                   6531.17272803519882
  Hartree energy:                                            9213.44168665832876
  Exchange-correlation energy:                              -2111.03118487215215

  Total energy:                                             -8808.85671997076133

 ENERGY| Total FORCE_EVAL ( QS ) energy [a.u.]:            -8808.858096068195664

 MD| ***************************************************************************
 MD| Step number                                                               6
 MD| Time [fs]                                                          3.000000
 MD| Conserved quantity [hartree]                            -0.880617011386E+04
 MD| ---------------------------------------------------------------------------
 MD|                                          Instantaneous             Averages
 MD| CPU time per MD step [s]                      9.957403            23.524815
 MD| Energy drift per atom [K]          -0.832719984021E+02  -0.689908910543E+02
 MD| Potential energy [hartree]         -0.880885809607E+04  -0.880870643844E+04
 MD| Kinetic energy [hartree]            0.268798220751E+01   0.254037248655E+01
 MD| Temperature [K]                             368.641318           348.397493
 MD| ***************************************************************************

 Number of electrons:                                                       4096
 Number of occupied orbitals:                                               2048
 Number of molecular orbitals:                                              2048

 Number of orbital functions:                                              20480
 Number of independent orbital functions:                                  20480

 Extrapolation method: PS Nth order
 Extrapolation order:  3


 SCF WAVEFUNCTION OPTIMIZATION

  ----------------------------------- OT ---------------------------------------
  Minimizer      : DIIS                : direct inversion
                                         in the iterative subspace
                                         using   7 DIIS vectors
                                         safer DIIS on
  Preconditioner : FULL_KINETIC        : inversion of T + eS
  Precond_solver : DEFAULT
  stepsize       :    0.15000000                  energy_gap     :    0.20000000
  eps_taylor     :   0.10000E-15                  max_taylor     :             4
  ----------------------------------- OT ---------------------------------------

  Step     Update method      Time    Convergence         Total energy    Change
  ------------------------------------------------------------------------------
     1 OT DIIS     0.15E+00    4.2     0.00004551     -8808.6384763438 -8.81E+03
     2 OT DIIS     0.15E+00    1.0     0.00003729     -8808.6502432842 -1.18E-02
     3 OT DIIS     0.15E+00    1.0     0.00002023     -8808.6710753136 -2.08E-02
     4 OT DIIS     0.15E+00    1.0     0.00001308     -8808.6771449256 -6.07E-03
     5 OT DIIS     0.15E+00    1.0     0.00000755     -8808.6802140664 -3.07E-03

  *** SCF run converged in     5 steps ***


  Electronic density on regular grids:      -4096.0000050933       -0.0000050933
  Core density on regular grids:             4095.9999999989       -0.0000000011
  Total charge density on r-space grids:       -0.0000050945
  Total charge density g-space grids:          -0.0000050945

  Overlap energy of the core charge distribution:               0.00000622092162
  Self energy of the core charge distribution:             -22442.43995950839599
  Core Hamiltonian energy:                                   6517.03117978096816
  Hartree energy:                                            9223.86272660140457
  Exchange-correlation energy:                              -2107.13416716129814

  Total energy:                                             -8808.68021406640037

 ENERGY| Total FORCE_EVAL ( QS ) energy [a.u.]:            -8808.681147684033931

 MD| ***************************************************************************
 MD| Step number                                                               7
 MD| Time [fs]                                                          3.500000
 MD| Conserved quantity [hartree]                            -0.880616595805E+04
 MD| ---------------------------------------------------------------------------
 MD|                                          Instantaneous             Averages
 MD| CPU time per MD step [s]                     10.103562            21.607493
 MD| Energy drift per atom [K]          -0.824176357347E+02  -0.709089974372E+02
 MD| Potential energy [hartree]         -0.880868114768E+04  -0.880870282548E+04
 MD| Kinetic energy [hartree]            0.251518963847E+01   0.253677493683E+01
 MD| Temperature [K]                             344.943810           347.904110
 MD| ***************************************************************************

 Number of electrons:                                                       4096
 Number of occupied orbitals:                                               2048
 Number of molecular orbitals:                                              2048

 Number of orbital functions:                                              20480
 Number of independent orbital functions:                                  20480

 Extrapolation method: PS Nth order
 Extrapolation order:  3


 SCF WAVEFUNCTION OPTIMIZATION

  ----------------------------------- OT ---------------------------------------
  Minimizer      : DIIS                : direct inversion
                                         in the iterative subspace
                                         using   7 DIIS vectors
                                         safer DIIS on
  Preconditioner : FULL_KINETIC        : inversion of T + eS
  Precond_solver : DEFAULT
  stepsize       :    0.15000000                  energy_gap     :    0.20000000
  eps_taylor     :   0.10000E-15                  max_taylor     :             4
  ----------------------------------- OT ---------------------------------------

  Step     Update method      Time    Convergence         Total energy    Change
  ------------------------------------------------------------------------------
     1 OT DIIS     0.15E+00    4.1     0.00004639     -8808.4083503986 -8.81E+03
     2 OT DIIS     0.15E+00    0.9     0.00003771     -8808.4205195610 -1.22E-02
     3 OT DIIS     0.15E+00    0.9     0.00002094     -8808.4409405648 -2.04E-02
     4 OT DIIS     0.15E+00    1.1     0.00001360     -8808.4479496667 -7.01E-03
     5 OT DIIS     0.15E+00    1.1     0.00001073     -8808.4504245096 -2.47E-03
     6 OT DIIS     0.15E+00    1.2     0.00000737     -8808.4530065732 -2.58E-03

  *** SCF run converged in     6 steps ***


  Electronic density on regular grids:      -4096.0000038468       -0.0000038468
  Core density on regular grids:             4096.0000000008        0.0000000008
  Total charge density on r-space grids:       -0.0000038460
  Total charge density g-space grids:          -0.0000038460

  Overlap energy of the core charge distribution:               0.00000436187192
  Self energy of the core charge distribution:             -22442.43995950839599
  Core Hamiltonian energy:                                   6506.06509193509737
  Hartree energy:                                            9232.01158702355679
  Exchange-correlation energy:                              -2104.08973038537624

  Total energy:                                             -8808.45300657324697

 ENERGY| Total FORCE_EVAL ( QS ) energy [a.u.]:            -8808.454571298954761

 MD| ***************************************************************************
 MD| Step number                                                               8
 MD| Time [fs]                                                          4.000000
 MD| Conserved quantity [hartree]                            -0.880616115110E+04
 MD| ---------------------------------------------------------------------------
 MD|                                          Instantaneous             Averages
 MD| CPU time per MD step [s]                     11.277635            20.316261
 MD| Energy drift per atom [K]          -0.814294118667E+02  -0.722240492409E+02
 MD| Potential energy [hartree]         -0.880845457130E+04  -0.880867179370E+04
 MD| Kinetic energy [hartree]            0.229342019996E+01   0.250635559472E+01
 MD| Temperature [K]                             314.529405           343.732272
 MD| ***************************************************************************

 Number of electrons:                                                       4096
 Number of occupied orbitals:                                               2048
 Number of molecular orbitals:                                              2048

 Number of orbital functions:                                              20480
 Number of independent orbital functions:                                  20480

 Extrapolation method: PS Nth order
 Extrapolation order:  3


 SCF WAVEFUNCTION OPTIMIZATION

  ----------------------------------- OT ---------------------------------------
  Minimizer      : DIIS                : direct inversion
                                         in the iterative subspace
                                         using   7 DIIS vectors
                                         safer DIIS on
  Preconditioner : FULL_KINETIC        : inversion of T + eS
  Precond_solver : DEFAULT
  stepsize       :    0.15000000                  energy_gap     :    0.20000000
  eps_taylor     :   0.10000E-15                  max_taylor     :             4
  ----------------------------------- OT ---------------------------------------

  Step     Update method      Time    Convergence         Total energy    Change
  ------------------------------------------------------------------------------
     1 OT DIIS     0.15E+00    4.2     0.00004050     -8808.2146958214 -8.81E+03
     2 OT DIIS     0.15E+00    1.0     0.00003407     -8808.2241577087 -9.46E-03
     3 OT DIIS     0.15E+00    1.1     0.00001718     -8808.2450181003 -2.09E-02
     4 OT DIIS     0.15E+00    1.1     0.00001245     -8808.2495172963 -4.50E-03
     5 OT DIIS     0.15E+00    0.9     0.00000891     -8808.2522162382 -2.70E-03

  *** SCF run converged in     5 steps ***


  Electronic density on regular grids:      -4096.0000022243       -0.0000022243
  Core density on regular grids:             4096.0000000016        0.0000000016
  Total charge density on r-space grids:       -0.0000022227
  Total charge density g-space grids:          -0.0000022227

  Overlap energy of the core charge distribution:               0.00000353692324
  Self energy of the core charge distribution:             -22442.43995950839599
  Core Hamiltonian energy:                                   6498.75943259530322
  Hartree energy:                                            9237.49747925858537
  Exchange-correlation energy:                              -2102.06917212066492

  Total energy:                                             -8808.25221623824837

 ENERGY| Total FORCE_EVAL ( QS ) energy [a.u.]:            -8808.253873790661601

 MD| ***************************************************************************
 MD| Step number                                                               9
 MD| Time [fs]                                                          4.500000
 MD| Conserved quantity [hartree]                            -0.880615635603E+04
 MD| ---------------------------------------------------------------------------
 MD|                                          Instantaneous             Averages
 MD| CPU time per MD step [s]                     10.085927            19.179557
 MD| Energy drift per atom [K]          -0.804436305523E+02  -0.731373360533E+02
 MD| Potential energy [hartree]         -0.880825387379E+04  -0.880862535816E+04
 MD| Kinetic energy [hartree]            0.209751775710E+01   0.246092916832E+01
 MD| Temperature [K]                             287.662511           337.502298
 MD| ***************************************************************************

 Number of electrons:                                                       4096
 Number of occupied orbitals:                                               2048
 Number of molecular orbitals:                                              2048

 Number of orbital functions:                                              20480
 Number of independent orbital functions:                                  20480

 Extrapolation method: PS Nth order
 Extrapolation order:  3


 SCF WAVEFUNCTION OPTIMIZATION

  ----------------------------------- OT ---------------------------------------
  Minimizer      : DIIS                : direct inversion
                                         in the iterative subspace
                                         using   7 DIIS vectors
                                         safer DIIS on
  Preconditioner : FULL_KINETIC        : inversion of T + eS
  Precond_solver : DEFAULT
  stepsize       :    0.15000000                  energy_gap     :    0.20000000
  eps_taylor     :   0.10000E-15                  max_taylor     :             4
  ----------------------------------- OT ---------------------------------------

  Step     Update method      Time    Convergence         Total energy    Change
  ------------------------------------------------------------------------------
     1 OT DIIS     0.15E+00    4.1     0.00004012     -8808.1037277457 -8.81E+03
     2 OT DIIS     0.15E+00    0.9     0.00003342     -8808.1129251945 -9.20E-03
     3 OT DIIS     0.15E+00    1.0     0.00002048     -8808.1296917974 -1.68E-02
     4 OT DIIS     0.15E+00    1.0     0.00001263     -8808.1379700857 -8.28E-03
     5 OT DIIS     0.15E+00    1.1     0.00001017     -8808.1402115349 -2.24E-03
     6 OT DIIS     0.15E+00    1.2     0.00000715     -8808.1425471478 -2.34E-03

  *** SCF run converged in     6 steps ***


  Electronic density on regular grids:      -4096.0000006753       -0.0000006753
  Core density on regular grids:             4096.0000000007        0.0000000007
  Total charge density on r-space grids:       -0.0000006746
  Total charge density g-space grids:          -0.0000006746

  Overlap energy of the core charge distribution:               0.00000340787783
  Self energy of the core charge distribution:             -22442.43995950839599
  Core Hamiltonian energy:                                   6495.52247248536423
  Hartree energy:                                            9239.94935237655591
  Exchange-correlation energy:                              -2101.17441590916769

  Total energy:                                             -8808.14254714776689

 ENERGY| Total FORCE_EVAL ( QS ) energy [a.u.]:            -8808.143948225406348

 MD| ***************************************************************************
 MD| Step number                                                              10
 MD| Time [fs]                                                          5.000000
 MD| Conserved quantity [hartree]                            -0.880615520853E+04
 MD| ---------------------------------------------------------------------------
 MD|                                          Instantaneous             Averages
 MD| CPU time per MD step [s]                     11.302304            18.391832
 MD| Energy drift per atom [K]          -0.802077249146E+02  -0.738443749394E+02
 MD| Potential energy [hartree]         -0.880814394823E+04  -0.880857721717E+04
 MD| Kinetic energy [hartree]            0.198873969075E+01   0.241371022056E+01
 MD| Temperature [K]                             272.744224           331.026491
 MD| ***************************************************************************

 -------------------------------------------------------------------------------
 -                                                                             -
 -                                DBCSR STATISTICS                             -
 -                                                                             -
 -------------------------------------------------------------------------------
 COUNTER                                    TOTAL       BLAS       SMM       ACC
 flops     9 x    32 x    32          13287555072     100.0%      0.0%      0.0%
 flops    22 x    32 x    32          16240345088     100.0%      0.0%      0.0%
 flops    64 x   256 x   256         904090615808     100.0%      0.0%      0.0%
 flops   191 x   256 x   256        1788082126848     100.0%      0.0%      0.0%
 flops   191 x   256 x  2560        4069649285120     100.0%      0.0%      0.0%
 flops    64 x   256 x  2560        4864050462720     100.0%      0.0%      0.0%
 flops     9 x     9 x   256        5648350040064     100.0%      0.0%      0.0%
 flops   138 x   256 x   256        7105520074752     100.0%      0.0%      0.0%
 flops     9 x    22 x   256        7855827369984     100.0%      0.0%      0.0%
 flops    22 x     9 x   256        7866447519744     100.0%      0.0%      0.0%
 flops    22 x    22 x   256       11004752822272     100.0%      0.0%      0.0%
 flops   169 x   256 x   256       11074875162624     100.0%      0.0%      0.0%
 flops    32 x   256 x   256       13561359237120     100.0%      0.0%      0.0%
 flops   138 x   256 x  2560       16172061818880     100.0%      0.0%      0.0%
 flops   182 x   256 x   256       18742096429056     100.0%      0.0%      0.0%
 flops     9 x    32 x     9       23722505551872     100.0%      0.0%      0.0%
 flops   169 x   256 x  2560       25206257090560     100.0%      0.0%      0.0%
 flops   160 x   256 x   256       25463787356160     100.0%      0.0%      0.0%
 flops    22 x    32 x     9       33153656684544     100.0%      0.0%      0.0%
 flops     9 x    32 x    22       33153656684544     100.0%      0.0%      0.0%
 flops   182 x   256 x  2560       42656742768640     100.0%      0.0%      0.0%
 flops    22 x    32 x    22       46115724689408     100.0%      0.0%      0.0%
 flops   160 x   256 x  2560       57955214950400     100.0%      0.0%      0.0%
 flops    32 x   256 x  2560       72960756940800     100.0%      0.0%      0.0%
 flops inhomo. stacks             136506610024448     100.0%      0.0%      0.0%
 flops total                       607.581604E+12     100.0%      0.0%      0.0%
 flops max/rank                      9.674769E+12     100.0%      0.0%      0.0%
 matmuls inhomo. stacks                   1972800     100.0%      0.0%      0.0%
 matmuls total                        11644967168     100.0%      0.0%      0.0%
 number of processed stacks              31882360     100.0%      0.0%      0.0%
 average stack size                                   365.2       0.0       0.0
 marketing flops                     1.147134E+15
 -------------------------------------------------------------------------------
 # multiplications                           2431
 max memory usage/rank               1.197924E+09
 # max total images/rank                        1
 # max 3D layers                                1
 # MPI messages exchanged                 2178176
 MPI messages size (bytes):
  total size                        10.465579E+12
  min size                           0.000000E+00
  max size                          52.428800E+06
  average size                       4.804744E+06
 MPI breakdown and total messages size (bytes):
             size <=      128               14168                        0
       128 < size <=     8192                   0                        0
      8192 < size <=    32768                   0                        0
     32768 < size <=   131072                 616                 40370176
    131072 < size <=  4194304             1004416             526603255808
   4194304 < size <= 16777216             1102080            6955934264608
  16777216 < size                           56896            2982989004800
 -------------------------------------------------------------------------------
 -                                                                             -
 -                      DBCSR MESSAGE PASSING PERFORMANCE                      -
 -                                                                             -
 -------------------------------------------------------------------------------
 ROUTINE             CALLS      AVE VOLUME [Bytes]
 MP_Bcast               25                     12.
 MP_Allreduce        12979                     67.
 MP_Alltoall          9270                 710222.
 MP_ISend            77748                2112693.
 MP_IRecv            77748                2112366.
 -------------------------------------------------------------------------------

 -------------------------------------------------------------------------------
 -                                                                             -
 -                                GRID STATISTICS                              -
 -                                                                             -
 -------------------------------------------------------------------------------
 LP    KERNEL             BACKEND                              COUNT     PERCENT
 1     collocate ortho    REF                              135745301      21.28%
 1     integrate ortho    REF                              130493488      20.46%
 2     integrate ortho    REF                               88995618      13.95%
 2     collocate ortho    REF                               84560451      13.26%
 0     collocate ortho    REF                               75171698      11.78%
 0     integrate ortho    REF                               68664071      10.76%
 3     integrate ortho    REF                               26282166       4.12%
 3     collocate ortho    REF                               20755016       3.25%
 4     integrate ortho    REF                                3293394       0.52%
 4     collocate ortho    REF                                1638196       0.26%
 0     collocate general  REF                                1081344       0.17%
 1     integrate general  REF                                1081344       0.17%
 5     integrate ortho    REF                                 141925       0.02%
 -------------------------------------------------------------------------------

 MEMORY| Estimated peak process memory [MiB]                                1143

 -------------------------------------------------------------------------------
 -                                                                             -
 -                         MESSAGE PASSING PERFORMANCE                         -
 -                                                                             -
 -------------------------------------------------------------------------------

 ROUTINE             CALLS      AVE VOLUME [Bytes]
 MP_Group                4
 MP_Bcast             4017                  58266.
 MP_Allreduce        11013                   1637.
 MP_Sync               136
 MP_Alltoall          1955                7394436.
 MP_ISendRecv        32004                  75384.
 MP_Wait             45784
 MP_comm_split          66
 MP_ISend            11660                 282796.
 MP_IRecv            11660                 282796.
 -------------------------------------------------------------------------------


 -------------------------------------------------------------------------------
 -                                                                             -
 -                           R E F E R E N C E S                               -
 -                                                                             -
 -------------------------------------------------------------------------------
 
 CP2K version 8.2, the CP2K developers group (2021).
 CP2K is freely available from https://www.cp2k.org/ .

 Kuehne,Thomas D.; Iannuzzi,Marcella; Del Ben,Mauro;
 Rybkin,Vladimir V.; Seewald,Patrick; Stein,Frederick; Laino,Teodoro;
 Khaliullin,Rustam Z.; Schuett,Ole; Schiffmann,Florian; Golze,Dorothea;
 Wilhelm,Jan; Chulkov,Sergey; Bani-Hashemian,Mohammad Hossein;
 Weber,Valery; Borstnik,Urban; Taillefumier,Mathieu;
 Jakobovits,Alice Shoshana; Lazzaro,Alfio; Pabst,Hans; Mueller,Tiziano;
 Schade,Robert; Guidon,Manuel; Andermatt,Samuel; Holmberg,Nico;
 Schenter,Gregory K.; Hehn,Anna; Bussy,Augustin; Belleflamme,Fabian;
 Tabacchi,Gloria; Gloess,Andreas; Lass,Michael; Bethune,Iain;
 Mundy,Christopher J.; Plessl,Christian; Watkins,Matt;
 VandeVondele,Joost; Krack,Matthias; Hutter,Juerg. 
 The Journal of Chemical Physics, 152 (19), (2020). 
 CP2K: An electronic structure and molecular dynamics software package -
 Quickstep: Efficient and accurate electronic structure calculations.
 https://doi.org/10.1063/5.0007045

 Schuett, Ole; Messmer, Peter; Hutter, Juerg; VandeVondele, Joost. 
 Electronic Structure Calculations on Graphics Processing Units, John
 Wiley & Sons, Ltd, 173-190 (2016). 
 GPU-Accelerated Sparse Matrix-Matrix Multiplication for
 Linear Scaling Density Functional Theory.
 https://doi.org/10.1002/9781118670712.ch8

 Borstnik, U; VandeVondele, J; Weber, V; Hutter, J. 
 PARALLEL COMPUTING, 40 (5-6), 47-58 (2014). 
 Sparse matrix multiplication: The distributed block-compressed sparse
 row library.
 https://doi.org/10.1016/j.parco.2014.03.012

 Hutter, J; Iannuzzi, M; Schiffmann, F; VandeVondele, J. 
 WIREs Comput Mol Sci., 4 (1), 15-25 (2014). 
 CP2K: atomistic simulations of condensed matter systems.
 https://doi.org/10.1002/wcms.1159

 Marek, A; Blum, V; Johanni, R; Havu, V; Lang, B; Auckenthaler, T;
 Heinecke, A; Bungartz, H; Lederer, H. 
 Journal of Physics: Condensed Matter, 26 (21), (2014). 
 The ELPA library: scalable parallel eigenvalue solutions for
 electronic structure
 theory and computational science.
 https://doi.org/10.1088/0953-8984/26/21/213201

 Krack, M. 
 THEORETICAL CHEMISTRY ACCOUNTS, 114 (1-3), 145-152 (2005). 
 Pseudopotentials for H to Kr optimized for gradient-corrected
 exchange-correlation functionals.
 https://doi.org/10.1007/s00214-005-0655-y

 VandeVondele, J; Krack, M; Mohamed, F; Parrinello, M; Chassaing, T;
 Hutter, J. COMPUTER PHYSICS COMMUNICATIONS, 167 (2), 103-128 (2005). 
 QUICKSTEP: Fast and accurate density functional calculations using a
 mixed Gaussian and plane waves approach.
 https://doi.org/10.1016/j.cpc.2004.12.014

 Frigo, M; Johnson, SG. 
 PROCEEDINGS OF THE IEEE, 93 (2), 216-231 (2005). 
 The design and implementation of FFTW3.
 https://doi.org/10.1109/JPROC.2004.840301

 VandeVondele, J; Hutter, J. 
 JOURNAL OF CHEMICAL PHYSICS, 118 (10), 4365-4369 (2003). 
 An efficient orbital transformation method for electronic structure
 calculations.
 https://doi.org/10.1063/1.1543154

 Hartwigsen, C; Goedecker, S; Hutter, J. 
 PHYSICAL REVIEW B, 58 (7), 3641-3662 (1998). 
 Relativistic separable dual-space Gaussian pseudopotentials from H to Rn.
 https://doi.org/10.1103/PhysRevB.58.3641

 Lippert, G; Hutter, J; Parrinello, M. 
 MOLECULAR PHYSICS, 92 (3), 477-487 (1997). 
 A hybrid Gaussian and plane wave density functional scheme.
 https://doi.org/10.1080/002689797170220

 Goedecker, S; Teter, M; Hutter, J. 
 PHYSICAL REVIEW B, 54 (3), 1703-1710 (1996). 
 Separable dual-space Gaussian pseudopotentials.
 https://doi.org/10.1103/PhysRevB.54.1703


 -------------------------------------------------------------------------------
 -                                                                             -
 -                                T I M I N G                                  -
 -                                                                             -
 -------------------------------------------------------------------------------
 SUBROUTINE                       CALLS  ASD         SELF TIME        TOTAL TIME
                                MAXIMUM       AVERAGE  MAXIMUM  AVERAGE  MAXIMUM
 CP2K                                 1  1.0    0.219    0.226  184.414  184.415
 qs_mol_dyn_low                       1  2.0    0.003    0.016  183.992  184.018
 qs_forces                           11  3.9    0.004    0.005  183.799  183.804
 qs_energies                         11  4.9    0.001    0.001  180.651  180.681
 scf_env_do_scf                      11  5.9    0.001    0.001  165.410  165.416
 scf_env_do_scf_inner_loop          116  6.6    0.003    0.009  128.574  128.582
 velocity_verlet                     10  3.0    0.001    0.001  118.728  118.730
 qs_scf_new_mos                     116  7.6    0.001    0.001  102.958  103.410
 qs_scf_loop_do_ot                  116  8.6    0.001    0.001  102.957  103.409
 ot_scf_mini                        116  9.6    0.004    0.004   98.076   98.533
 dbcsr_multiply_generic            2431 12.5    0.178    0.184   95.432   97.909
 multiply_cannon                   2431 13.5    0.265    0.287   69.120   75.524
 multiply_cannon_loop              2431 14.5    0.251    0.263   65.177   70.415
 ot_mini                            116 10.6    0.001    0.001   56.157   56.744
 multiply_cannon_multrec          19448 15.5   45.886   52.637   45.916   52.669
 init_scf_loop                       11  6.9    0.000    0.000   36.697   36.704
 prepare_preconditioner              11  7.9    0.000    0.000   33.837   33.887
 make_preconditioner                 11  8.9    0.000    0.000   33.837   33.887
 make_full_inverse_cholesky          11  9.9    0.000    0.000   32.268   32.371
 qs_ot_get_derivative               116 11.6    0.002    0.002   31.191   31.625
 mp_waitall_1                    228604 16.3   19.044   25.563   19.044   25.563
 qs_ot_get_p                        127 10.4    0.001    0.001   24.638   25.305
 ot_diis_step                       116 11.6    0.009    0.012   24.629   24.630
 apply_preconditioner_dbcsr         127 12.6    0.000    0.000   23.143   24.267
 apply_single                       127 13.6    0.001    0.001   23.143   24.267
 cp_fm_cholesky_invert               11 10.9   20.783   20.789   20.783   20.789
 rebuild_ks_matrix                  127  8.3    0.001    0.001   18.363   18.944
 qs_ks_build_kohn_sham_matrix       127  9.3    0.017    0.018   18.362   18.943
 qs_ks_update_qs_env                127  7.6    0.001    0.002   16.705   17.230
 make_m2s                          4862 13.5    0.095    0.100   15.893   16.701
 qs_ot_p2m_diag                      66 11.2    0.228    0.235   16.359   16.401
 cp_dbcsr_syevd                      66 12.2    0.005    0.006   15.354   15.371
 cp_fm_diag_elpa                     66 13.2    0.000    0.001   15.170   15.172
 cp_fm_redistribute_end              66 14.2    6.641   15.090    6.656   15.097
 cp_fm_diag_elpa_base                66 14.2    8.330   14.829    8.414   14.986
 multiply_cannon_metrocomm4       17017 15.5    0.047    0.052    7.289   13.804
 mp_irecv_dv                      47634 16.1    7.225   13.699    7.225   13.699
 multiply_cannon_metrocomm3       19448 15.5    0.041    0.044    7.967   12.982
 make_images                       4862 14.5    2.174    2.772   11.802   12.672
 qs_ot_get_derivative_diag           62 12.2    0.002    0.002   11.461   11.707
 qs_rho_update_rho                  127  7.7    0.001    0.001   11.241   11.310
 calculate_rho_elec                 127  8.7    0.161    0.169   11.240   11.309
 init_scf_run                        11  5.9    0.000    0.001   10.654   10.659
 scf_env_initial_rho_setup           11  6.9    0.000    0.001   10.654   10.658
 wfi_extrapolate                     11  7.9    0.001    0.001    9.444    9.444
 cp_fm_cholesky_decompose            22 10.9    9.362    9.438    9.362    9.438
 mp_sum_l                         11831 13.4    6.073    8.967    6.073    8.967
 make_images_data                  4862 15.5    0.052    0.064    7.183    8.566
 dbcsr_make_dense_low              6216 15.5    0.044    0.048    5.326    8.344
 make_dense_data                   6216 16.5    4.888    7.945    5.248    8.255
 qs_ot_get_derivative_taylor         54 13.0    0.002    0.002    7.906    8.107
 hybrid_alltoall_any               5031 16.4    0.269    2.213    6.772    7.880
 qs_ot_get_orbitals                 116 10.6    0.001    0.001    7.026    7.181
 grid_collocate_task_list           127  9.7    6.411    6.736    6.411    6.736
 sum_up_and_integrate               127 10.3    0.041    0.044    6.633    6.694
 integrate_v_rspace                 127 11.3    0.004    0.004    6.592    6.653
 dbcsr_make_images_dense           4236 14.8    0.035    0.038    3.861    6.598
 calculate_dm_sparse                127  9.5    0.001    0.001    5.466    5.662
 multiply_cannon_metrocomm1       19448 15.5    0.049    0.051    3.558    5.501
 cp_gemm                             81  9.0    0.000    0.000    4.859    4.936
 cp_gemm_fm_gemm                     81 10.0    0.001    0.001    4.858    4.936
 cp_fm_gemm                          81 11.0    4.858    4.935    4.858    4.935
 mp_sum_d                          4424 12.1    3.456    4.687    3.456    4.687
 dbcsr_dot_sd                      1303 12.0    1.238    1.304    3.656    4.559
 mp_allgather_i34                  2431 14.5    3.134    4.484    3.134    4.484
 cp_dbcsr_sm_fm_multiply             37  9.5    0.002    0.002    4.374    4.402
 rs_pw_transfer                    1038 11.9    0.011    0.013    4.060    4.239
 dbcsr_complete_redistribute        361 12.5    1.478    1.596    3.732    4.068
 density_rs2pw                      127  9.7    0.004    0.005    3.736    3.923
 -------------------------------------------------------------------------------

 The number of warnings for this run is : 1
 
 -------------------------------------------------------------------------------
  **** **** ******  **  PROGRAM ENDED AT                 2022-01-17 17:04:03.430
 ***** ** ***  *** **   PROGRAM RAN ON                                 nid005043
 **    ****   ******    PROGRAM RAN BY                                    hjudge
 ***** **    ** ** **   PROGRAM PROCESS ID                                102431
  **** **  *******  **  PROGRAM STOPPED IN /mnt/lustre/a2fs-work2/work/z19/z19/h
                                           judge/CUG/archer2/CPU/CP2K/H2O-512/8N
                                           ODES/128CPN/16THREADS
