 DBCSR| CPU Multiplication driver                                           BLAS
 DBCSR| Multrec recursion limit                                              512
 DBCSR| Multiplication stack size                                           1000
 DBCSR| Maximum elements for images                                    UNLIMITED
 DBCSR| Multiplicative factor virtual images                                   1
 DBCSR| Use multiplication densification                                       T
 DBCSR| Multiplication size stacks                                             3
 DBCSR| Use memory pool for CPU allocation                                     F
 DBCSR| Number of 3D layers                                               SINGLE
 DBCSR| Use MPI memory allocation                                              F
 DBCSR| Use RMA algorithm                                                      F
 DBCSR| Use Communication thread                                               T
 DBCSR| Communication thread load                                             87
 DBCSR| MPI: My node id                                                        0
 DBCSR| MPI: Number of nodes                                                 512
 DBCSR| OMP: Current number of threads                                         1
 DBCSR| OMP: Max number of threads                                             1
 DBCSR| Split modifier for TAS multiplication algorithm                  1.0E+00


  **** **** ******  **  PROGRAM STARTED AT               2022-01-17 17:04:00.984
 ***** ** ***  *** **   PROGRAM STARTED ON                             nid003214
 **    ****   ******    PROGRAM STARTED BY                                hjudge
 ***** **    ** ** **   PROGRAM PROCESS ID                                 58862
  **** **  *******  **  PROGRAM STARTED IN /mnt/lustre/a2fs-work2/work/z19/z19/h
                                           judge/CUG/archer2/CPU/CP2K/H2O-512/4N
                                           ODES/128CPN/1THREADS

 CP2K| version string:                                          CP2K version 8.2
 CP2K| source code revision number:                                  git:310b7ab
 CP2K| cp2kflags: omp libint fftw3 libxc elpa parallel mpi3 scalapack plumed2   
 CP2K| is freely available from                            https://www.cp2k.org/
 CP2K| Program compiled at                          Thu Dec  2 10:30:45 GMT 2021
 CP2K| Program compiled on                                                  ln02
 CP2K| Program compiled for                                              ARCHER2
 CP2K| Data directory path         /work/y07/shared/apps/core/cp2k/cp2k-8.2/data
 CP2K| Input file name                                               H2O-512.inp

 GLOBAL| Force Environment number                                              1
 GLOBAL| Basis set file name                                      GTH_BASIS_SETS
 GLOBAL| Potential file name                                           POTENTIAL
 GLOBAL| MM Potential file name                                     MM_POTENTIAL
 GLOBAL| Coordinate file name                                      __STD_INPUT__
 GLOBAL| Method name                                                        CP2K
 GLOBAL| Project name                                                    H2O-512
 GLOBAL| Run type                                                             MD
 GLOBAL| FFT library                                                       FFTW3
 GLOBAL| Diagonalization library                                            ELPA
 GLOBAL| Minimum number of eigenvectors for ELPA usage                        16
 GLOBAL| Orthonormality check for eigenvectors                          DISABLED
 GLOBAL| Matrix multiplication library                                    SCALAP
 GLOBAL| All-to-all communication in single precision                          F
 GLOBAL| FFTs using library dependent lengths                                  F
 GLOBAL| Grid backend                                                       AUTO
 GLOBAL| Global print level                                                  LOW
 GLOBAL| MPI I/O enabled                                                       T
 GLOBAL| Total number of message passing processes                           512
 GLOBAL| Number of threads for this process                                    1
 GLOBAL| This output is from process                                           0
 GLOBAL| CPU model name                          AMD EPYC 7742 64-Core Processor
 GLOBAL| CPUID                                                              1002

 MEMORY| system memory details [Kb]
 MEMORY|                        rank 0           min           max       average
 MEMORY| MemTotal            263528084     263528084     263528088     263528087
 MEMORY| MemFree             238003728     237935684     238457932     238084389
 MEMORY| Buffers                 33680         27120         33680         29473
 MEMORY| Cached                1041028       1015732       1041028       1029691
 MEMORY| Slab                  1672948       1657856       1683040       1673424
 MEMORY| SReclaimable            97024         92724         97024         94990
 MEMORY| MemLikelyFree       239175460     239073036     239615636     239238543


 GENERATE|  Preliminary Number of Bonds generated:                             0
 GENERATE|  Achieved consistency in connectivity generation.

 *******************************************************************************
 *******************************************************************************
 **                                                                           **
 **     #####                         ##              ##                      **
 **    ##   ##            ##          ##              ##                      **
 **   ##     ##                       ##            ######                    **
 **   ##     ##  ##   ##  ##   #####  ##  ##   ####   ##    #####    #####    **
 **   ##     ##  ##   ##  ##  ##      ## ##   ##      ##   ##   ##  ##   ##   **
 **   ##  ## ##  ##   ##  ##  ##      ####     ###    ##   ######   ######    **
 **    ##  ###   ##   ##  ##  ##      ## ##      ##   ##   ##       ##        **
 **     #######   #####   ##   #####  ##  ##  ####    ##    #####   ##        **
 **           ##                                                    ##        **
 **                                                                           **
 **                                                ... make the atoms dance   **
 **                                                                           **
 **            Copyright (C) by CP2K developers group (2000-2021)             **
 **                      J. Chem. Phys. 152, 194103 (2020)                    **
 **                                                                           **
 *******************************************************************************


 TOTAL NUMBERS AND MAXIMUM NUMBERS

  Total number of            - Atomic kinds:                                   2
                             - Atoms:                                       1536
                             - Shell sets:                                  3072
                             - Shells:                                      9216
                             - Primitive Cartesian functions:              10752
                             - Cartesian basis functions:                  21504
                             - Spherical basis functions:                  20480

  Maximum angular momentum of- Orbital basis functions:                        2
                             - Local part of the GTH pseudopotential:          2
                             - Non-local part of the GTH pseudopotential:      0


 SCF PARAMETERS         Density guess:                                    ATOMIC
                        --------------------------------------------------------
                        max_scf:                                              50
                        max_scf_history:                                       0
                        max_diis:                                              4
                        --------------------------------------------------------
                        eps_scf:                                        1.00E-05
                        eps_scf_history:                                0.00E+00
                        eps_diis:                                       1.00E-01
                        eps_eigval:                                     1.00E-05
                        --------------------------------------------------------
                        level_shift [a.u.]:                                 0.00
                        --------------------------------------------------------
                        No outer SCF

 MD_PAR| Molecular dynamics protocol (MD input parameters)
 MD_PAR| Ensemble type                                                       NVE
 MD_PAR| Number of time steps                                                 10
 MD_PAR| Time step [fs]                                                 0.500000
 MD_PAR| Temperature [K]                                              300.000000
 MD_PAR| Temperature tolerance [K]                                      0.000000
 MD_PAR| Print MD information every                                    1 step(s)
 MD_PAR| File type   Print frequency [steps]                          File names
 MD_PAR| Coordinates          1                                H2O-512-pos-1.xyz
 MD_PAR| Velocities           1                                H2O-512-vel-1.xyz
 MD_PAR| Energies             1                                   H2O-512-1.ener
 MD_PAR| Dump                20                                H2O-512-1.restart

 ROT| Rotational analysis information
 ROT| Principal axes and moments of inertia [a.u.]
 ROT|                           1                   2                   3
 ROT| Eigenvalues      6.12011925703E+09   6.17734003456E+09   6.32378668800E+09
 ROT|      x              0.229702356692      0.883899672739      0.407379670409
 ROT|      y              0.711719446246      0.132949289019     -0.689768016354
 ROT|      z              0.663846561462     -0.448381372362      0.598549820611
 ROT| Number of rotovibrational vectors                                        6

 DOF| Calculation of degrees of freedom
 DOF| Number of atoms                                                       1536
 DOF| Number of intramolecular constraints                                     0
 DOF| Number of intermolecular constraints                                     0
 DOF| Invariants (translations + rotations)                                    3
 DOF| Degrees of freedom                                                    4605

 DOF| Restraints information
 DOF| Number of intramolecular restraints                                      0
 DOF| Number of intermolecular restraints                                      0

 MD_VEL| Velocities initialization
 MD_VEL| Initial temperature [K]                                      300.000000
 MD_VEL| COM velocity             0.0000000000    -0.0000000000     0.0000000000

 Number of electrons:                                                       4096
 Number of occupied orbitals:                                               2048
 Number of molecular orbitals:                                              2048

 Number of orbital functions:                                              20480
 Number of independent orbital functions:                                  20480

 Extrapolation method: initial_guess


 SCF WAVEFUNCTION OPTIMIZATION

  ----------------------------------- OT ---------------------------------------
  Minimizer      : DIIS                : direct inversion
                                         in the iterative subspace
                                         using   7 DIIS vectors
                                         safer DIIS on
  Preconditioner : FULL_KINETIC        : inversion of T + eS
  Precond_solver : DEFAULT
  stepsize       :    0.15000000                  energy_gap     :    0.20000000
  eps_taylor     :   0.10000E-15                  max_taylor     :             4
  ----------------------------------- OT ---------------------------------------

  Step     Update method      Time    Convergence         Total energy    Change
  ------------------------------------------------------------------------------
     1 OT DIIS     0.15E+00   11.7     0.00467324     -8480.4728425690 -8.48E+03
     2 OT DIIS     0.15E+00    1.9     0.00318266     -8587.4488310143 -1.07E+02
     3 OT DIIS     0.15E+00    1.9     0.00347210     -8644.7931966768 -5.73E+01
     4 OT DIIS     0.15E+00    1.9     0.00204380     -8678.2157923836 -3.34E+01
     5 OT DIIS     0.15E+00    1.9     0.00148292     -8717.4624183879 -3.92E+01
     6 OT DIIS     0.15E+00    1.8     0.00119954     -8738.7795043572 -2.13E+01
     7 OT DIIS     0.15E+00    1.9     0.00099038     -8755.0185947300 -1.62E+01
     8 OT DIIS     0.15E+00    1.8     0.00079894     -8767.5347825454 -1.25E+01
     9 OT DIIS     0.15E+00    1.9     0.00061581     -8780.1862563834 -1.27E+01
    10 OT DIIS     0.15E+00    1.8     0.00048147     -8788.6147471042 -8.43E+00
    11 OT DIIS     0.15E+00    1.8     0.00038278     -8794.1215228889 -5.51E+00
    12 OT DIIS     0.15E+00    1.9     0.00031960     -8797.5363589594 -3.41E+00
    13 OT DIIS     0.15E+00    1.9     0.00026435     -8799.9344030908 -2.40E+00
    14 OT DIIS     0.15E+00    1.8     0.00023004     -8801.7089305035 -1.77E+00
    15 OT DIIS     0.15E+00    1.9     0.00019592     -8803.0697888564 -1.36E+00
    16 OT DIIS     0.15E+00    1.9     0.00016642     -8804.2000843411 -1.13E+00
    17 OT DIIS     0.15E+00    1.8     0.00014164     -8805.0506655806 -8.51E-01
    18 OT DIIS     0.15E+00    1.9     0.00012638     -8805.6725421207 -6.22E-01
    19 OT DIIS     0.15E+00    1.9     0.00010717     -8806.2171485645 -5.45E-01
    20 OT DIIS     0.15E+00    1.9     0.00009868     -8806.5290018963 -3.12E-01
    21 OT DIIS     0.15E+00    1.9     0.00008484     -8806.8772741195 -3.48E-01
    22 OT DIIS     0.15E+00    1.9     0.00007717     -8807.0943334427 -2.17E-01
    23 OT DIIS     0.15E+00    1.9     0.00006815     -8807.2974129499 -2.03E-01
    24 OT DIIS     0.15E+00    1.8     0.00006019     -8807.4529078233 -1.55E-01
    25 OT DIIS     0.15E+00    1.9     0.00005010     -8807.5989834234 -1.46E-01
    26 OT DIIS     0.15E+00    1.9     0.00004000     -8807.6989662228 -1.00E-01
    27 OT DIIS     0.15E+00    1.9     0.00003462     -8807.7827122401 -8.37E-02
    28 OT DIIS     0.15E+00    1.8     0.00003071     -8807.7824932500  2.19E-04
    29 OT DIIS     0.15E+00    1.9     0.00002690     -8807.8200993195 -3.76E-02
    30 OT DIIS     0.15E+00    1.9     0.00002500     -8807.8399634016 -1.99E-02
    31 OT DIIS     0.15E+00    1.8     0.00002395     -8807.8566460922 -1.67E-02
    32 OT DIIS     0.15E+00    1.9     0.00002328     -8807.8682689642 -1.16E-02
    33 OT DIIS     0.15E+00    1.9     0.00002304     -8807.8827275965 -1.45E-02
    34 OT DIIS     0.15E+00    1.9     0.00002300     -8807.8854890296 -2.76E-03
    35 OT SD       0.15E+00    1.8     0.00002301     -8807.8907467596 -5.26E-03
    36 OT SD       0.15E+00    1.9     0.00002308     -8807.8940817096 -3.33E-03
    37 OT SD       0.15E+00    1.9     0.00002318     -8807.8974407043 -3.36E-03
    38 OT SD       0.15E+00    1.8     0.00002329     -8807.9008284718 -3.39E-03
    39 OT SD       0.15E+00    1.9     0.00002341     -8807.9042491083 -3.42E-03
    40 OT SD       0.15E+00    1.9     0.00002354     -8807.9077063658 -3.46E-03
    41 OT SD       0.15E+00    1.9     0.00002369     -8807.9112037365 -3.50E-03
    42 OT SD       0.15E+00    1.8     0.00002384     -8807.9147444866 -3.54E-03
    43 OT SD       0.15E+00    1.9     0.00002400     -8807.9183316715 -3.59E-03
    44 OT SD       0.15E+00    1.9     0.00002417     -8807.9219681410 -3.64E-03
    45 OT DIIS     0.15E+00    1.9     0.00002435     -8807.9256565390 -3.69E-03
    46 OT DIIS     0.15E+00    1.9     0.00004963     -8807.9134172523  1.22E-02
    47 OT SD       0.15E+00    1.8     0.00005090     -8807.9142604183 -8.43E-04
    48 OT SD       0.15E+00    1.8     0.00004015     -8807.9285279552 -1.43E-02
    49 OT SD       0.15E+00    1.8     0.00003559     -8807.9380104671 -9.48E-03
    50 OT SD       0.15E+00    1.9     0.00003336     -8807.9456903068 -7.68E-03

  Leaving inner SCF loop after reaching    50 steps.


  Electronic density on regular grids:      -4096.0000074963       -0.0000074963
  Core density on regular grids:             4095.9999999927       -0.0000000073
  Total charge density on r-space grids:       -0.0000075036
  Total charge density g-space grids:          -0.0000075036

  Overlap energy of the core charge distribution:               0.00004500798551
  Self energy of the core charge distribution:             -22442.43995950839599
  Core Hamiltonian energy:                                   6603.78899674305467
  Hartree energy:                                            9161.23628026060942
  Exchange-correlation energy:                              -2130.53105281009084

  Total energy:                                             -8807.94569030683670

 *** WARNING in qs_scf.F:576 :: SCF run NOT converged ***


 ENERGY| Total FORCE_EVAL ( QS ) energy [a.u.]:            -8807.952554117231557

 MD_INI| MD initialization
 MD_INI| Potential energy [hartree]                          -0.880795255412E+04
 MD_INI| Kinetic energy [hartree]                             0.218747769838E+01
 MD_INI| Temperature [K]                                              300.000000
 MD_INI| Cell volume [bohr^3]                                 1.037187315243E+05
 MD_INI| Cell volume [ang^3]                                  1.536953010365E+04
 MD_INI| Cell lengths [bohr]      4.69842608E+01  4.69842608E+01  4.69842608E+01
 MD_INI| Cell lengths [ang]       2.48630000E+01  2.48630000E+01  2.48630000E+01
 MD_INI| Cell angles [deg]        9.00000000E+01  9.00000000E+01  9.00000000E+01

 Number of electrons:                                                       4096
 Number of occupied orbitals:                                               2048
 Number of molecular orbitals:                                              2048

 Number of orbital functions:                                              20480
 Number of independent orbital functions:                                  20480

 Extrapolation method: PS Nth order
 Extrapolation order:  0


 SCF WAVEFUNCTION OPTIMIZATION

  ----------------------------------- OT ---------------------------------------
  Minimizer      : DIIS                : direct inversion
                                         in the iterative subspace
                                         using   7 DIIS vectors
                                         safer DIIS on
  Preconditioner : FULL_KINETIC        : inversion of T + eS
  Precond_solver : DEFAULT
  stepsize       :    0.15000000                  energy_gap     :    0.20000000
  eps_taylor     :   0.10000E-15                  max_taylor     :             4
  ----------------------------------- OT ---------------------------------------

  Step     Update method      Time    Convergence         Total energy    Change
  ------------------------------------------------------------------------------
     1 OT DIIS     0.15E+00    4.2     0.00010167     -8807.9546029791 -8.81E+03
     2 OT DIIS     0.15E+00    1.5     0.00007399     -8808.0093531353 -5.48E-02
     3 OT DIIS     0.15E+00    1.5     0.00005493     -8808.0647428927 -5.54E-02
     4 OT DIIS     0.15E+00    1.5     0.00004934     -8808.1021591275 -3.74E-02
     5 OT DIIS     0.15E+00    1.8     0.00004590     -8808.1450898532 -4.29E-02
     6 OT DIIS     0.15E+00    1.8     0.00004348     -8808.1872824060 -4.22E-02
     7 OT DIIS     0.15E+00    1.8     0.00003910     -8808.2476486824 -6.04E-02
     8 OT DIIS     0.15E+00    1.8     0.00002829     -8808.3274529182 -7.98E-02
     9 OT DIIS     0.15E+00    1.9     0.00002025     -8808.3586799669 -3.12E-02
    10 OT DIIS     0.15E+00    1.9     0.00001287     -8808.3785403742 -1.99E-02
    11 OT DIIS     0.15E+00    1.9     0.00001026     -8808.3792670677 -7.27E-04
    12 OT DIIS     0.15E+00    1.9     0.00000705     -8808.3828066343 -3.54E-03

  *** SCF run converged in    12 steps ***


  Electronic density on regular grids:      -4096.0000079114       -0.0000079114
  Core density on regular grids:             4095.9999999916       -0.0000000084
  Total charge density on r-space grids:       -0.0000079198
  Total charge density g-space grids:          -0.0000079198

  Overlap energy of the core charge distribution:               0.00004378132216
  Self energy of the core charge distribution:             -22442.43995950839599
  Core Hamiltonian energy:                                   6601.18536612176740
  Hartree energy:                                            9162.93990761180612
  Exchange-correlation energy:                              -2130.06816464075746

  Total energy:                                             -8808.38280663425758

 ENERGY| Total FORCE_EVAL ( QS ) energy [a.u.]:            -8808.383482974077197

 MD| ***************************************************************************
 MD| Step number                                                               1
 MD| Time [fs]                                                          0.500000
 MD| Conserved quantity [hartree]                            -0.880615757214E+04
 MD| ---------------------------------------------------------------------------
 MD|                                          Instantaneous             Averages
 MD| CPU time per MD step [s]                    155.296175           155.296175
 MD| Energy drift per atom [K]          -0.806902333425E+02   0.000000000000E+00
 MD| Potential energy [hartree]         -0.880838348297E+04  -0.880838348297E+04
 MD| Kinetic energy [hartree]            0.222591083323E+01   0.222591083323E+01
 MD| Temperature [K]                             305.270884           305.270884
 MD| ***************************************************************************

 Number of electrons:                                                       4096
 Number of occupied orbitals:                                               2048
 Number of molecular orbitals:                                              2048

 Number of orbital functions:                                              20480
 Number of independent orbital functions:                                  20480

 Extrapolation method: PS Nth order
 Extrapolation order:  1


 SCF WAVEFUNCTION OPTIMIZATION

  ----------------------------------- OT ---------------------------------------
  Minimizer      : DIIS                : direct inversion
                                         in the iterative subspace
                                         using   7 DIIS vectors
                                         safer DIIS on
  Preconditioner : FULL_KINETIC        : inversion of T + eS
  Precond_solver : DEFAULT
  stepsize       :    0.15000000                  energy_gap     :    0.20000000
  eps_taylor     :   0.10000E-15                  max_taylor     :             4
  ----------------------------------- OT ---------------------------------------

  Step     Update method      Time    Convergence         Total energy    Change
  ------------------------------------------------------------------------------
     1 OT DIIS     0.15E+00    4.3     0.00008001     -8808.4313093156 -8.81E+03
     2 OT DIIS     0.15E+00    1.5     0.00005271     -8808.4637446452 -3.24E-02
     3 OT DIIS     0.15E+00    1.5     0.00003321     -8808.4886501585 -2.49E-02
     4 OT DIIS     0.15E+00    1.5     0.00002251     -8808.5029456666 -1.43E-02
     5 OT DIIS     0.15E+00    1.5     0.00001407     -8808.5119291500 -8.98E-03
     6 OT DIIS     0.15E+00    1.5     0.00000837     -8808.5159228376 -3.99E-03

  *** SCF run converged in     6 steps ***


  Electronic density on regular grids:      -4096.0000084064       -0.0000084064
  Core density on regular grids:             4095.9999999941       -0.0000000059
  Total charge density on r-space grids:       -0.0000084123
  Total charge density g-space grids:          -0.0000084123

  Overlap energy of the core charge distribution:               0.00003948979650
  Self energy of the core charge distribution:             -22442.43995950839599
  Core Hamiltonian energy:                                   6592.75633583670333
  Hartree energy:                                            9168.97934609342337
  Exchange-correlation energy:                              -2127.81168474908372

  Total energy:                                             -8808.51592283755417

 ENERGY| Total FORCE_EVAL ( QS ) energy [a.u.]:            -8808.517234454109712

 MD| ***************************************************************************
 MD| Step number                                                               2
 MD| Time [fs]                                                          1.000000
 MD| Conserved quantity [hartree]                            -0.880616181891E+04
 MD| ---------------------------------------------------------------------------
 MD|                                          Instantaneous             Averages
 MD| CPU time per MD step [s]                     13.414392            84.355283
 MD| Energy drift per atom [K]          -0.815632942275E+02  -0.407816471137E+02
 MD| Potential energy [hartree]         -0.880851723445E+04  -0.880845035871E+04
 MD| Kinetic energy [hartree]            0.235541554574E+01   0.229066318949E+01
 MD| Temperature [K]                             323.031711           314.151297
 MD| ***************************************************************************

 Number of electrons:                                                       4096
 Number of occupied orbitals:                                               2048
 Number of molecular orbitals:                                              2048

 Number of orbital functions:                                              20480
 Number of independent orbital functions:                                  20480

 Extrapolation method: PS Nth order
 Extrapolation order:  2


 SCF WAVEFUNCTION OPTIMIZATION

  ----------------------------------- OT ---------------------------------------
  Minimizer      : DIIS                : direct inversion
                                         in the iterative subspace
                                         using   7 DIIS vectors
                                         safer DIIS on
  Preconditioner : FULL_KINETIC        : inversion of T + eS
  Precond_solver : DEFAULT
  stepsize       :    0.15000000                  energy_gap     :    0.20000000
  eps_taylor     :   0.10000E-15                  max_taylor     :             4
  ----------------------------------- OT ---------------------------------------

  Step     Update method      Time    Convergence         Total energy    Change
  ------------------------------------------------------------------------------
     1 OT DIIS     0.15E+00    4.3     0.00008987     -8808.3717552918 -8.81E+03
     2 OT DIIS     0.15E+00    1.5     0.00007426     -8808.4174433154 -4.57E-02
     3 OT DIIS     0.15E+00    1.5     0.00005875     -8808.4862001737 -6.88E-02
     4 OT DIIS     0.15E+00    1.5     0.00004979     -8808.5436812627 -5.75E-02
     5 OT DIIS     0.15E+00    1.5     0.00004006     -8808.6033827578 -5.97E-02
     6 OT DIIS     0.15E+00    1.8     0.00002840     -8808.6545530465 -5.12E-02
     7 OT DIIS     0.15E+00    1.8     0.00001854     -8808.6820978064 -2.75E-02
     8 OT DIIS     0.15E+00    1.9     0.00001252     -8808.6920688194 -9.97E-03
     9 OT DIIS     0.15E+00    1.9     0.00000891     -8808.6959104996 -3.84E-03

  *** SCF run converged in     9 steps ***


  Electronic density on regular grids:      -4096.0000081507       -0.0000081507
  Core density on regular grids:             4095.9999999985       -0.0000000015
  Total charge density on r-space grids:       -0.0000081522
  Total charge density g-space grids:          -0.0000081522

  Overlap energy of the core charge distribution:               0.00003222727266
  Self energy of the core charge distribution:             -22442.43995950839599
  Core Hamiltonian energy:                                   6579.97333970381897
  Hartree energy:                                            9178.11109577911702
  Exchange-correlation energy:                              -2124.34041870136934

  Total energy:                                             -8808.69591049955852

 ENERGY| Total FORCE_EVAL ( QS ) energy [a.u.]:            -8808.697758315385727

 MD| ***************************************************************************
 MD| Step number                                                               3
 MD| Time [fs]                                                          1.500000
 MD| Conserved quantity [hartree]                            -0.880616479855E+04
 MD| ---------------------------------------------------------------------------
 MD|                                          Instantaneous             Averages
 MD| CPU time per MD step [s]                     19.520327            62.743631
 MD| Energy drift per atom [K]          -0.821758554566E+02  -0.545797165614E+02
 MD| Potential energy [hartree]         -0.880869775832E+04  -0.880853282525E+04
 MD| Kinetic energy [hartree]            0.253295976931E+01   0.237142871610E+01
 MD| Temperature [K]                             347.380881           325.227825
 MD| ***************************************************************************

 Number of electrons:                                                       4096
 Number of occupied orbitals:                                               2048
 Number of molecular orbitals:                                              2048

 Number of orbital functions:                                              20480
 Number of independent orbital functions:                                  20480

 Extrapolation method: PS Nth order
 Extrapolation order:  3


 SCF WAVEFUNCTION OPTIMIZATION

  ----------------------------------- OT ---------------------------------------
  Minimizer      : DIIS                : direct inversion
                                         in the iterative subspace
                                         using   7 DIIS vectors
                                         safer DIIS on
  Preconditioner : FULL_KINETIC        : inversion of T + eS
  Precond_solver : DEFAULT
  stepsize       :    0.15000000                  energy_gap     :    0.20000000
  eps_taylor     :   0.10000E-15                  max_taylor     :             4
  ----------------------------------- OT ---------------------------------------

  Step     Update method      Time    Convergence         Total energy    Change
  ------------------------------------------------------------------------------
     1 OT DIIS     0.15E+00    4.3     0.00008300     -8808.7601014456 -8.81E+03
     2 OT DIIS     0.15E+00    1.5     0.00005686     -8808.7956190578 -3.55E-02
     3 OT DIIS     0.15E+00    1.5     0.00003614     -8808.8258137589 -3.02E-02
     4 OT DIIS     0.15E+00    1.5     0.00002270     -8808.8440344111 -1.82E-02
     5 OT DIIS     0.15E+00    1.5     0.00001489     -8808.8523329045 -8.30E-03
     6 OT DIIS     0.15E+00    1.5     0.00000969     -8808.8563577138 -4.02E-03

  *** SCF run converged in     6 steps ***


  Electronic density on regular grids:      -4096.0000085821       -0.0000085821
  Core density on regular grids:             4096.0000000009        0.0000000009
  Total charge density on r-space grids:       -0.0000085812
  Total charge density g-space grids:          -0.0000085812

  Overlap energy of the core charge distribution:               0.00002346614970
  Self energy of the core charge distribution:             -22442.43995950839599
  Core Hamiltonian energy:                                   6564.27158440916810
  Hartree energy:                                            9189.38286214726213
  Exchange-correlation energy:                              -2120.07086822796646

  Total energy:                                             -8808.85635771378293

 ENERGY| Total FORCE_EVAL ( QS ) energy [a.u.]:            -8808.858123893245647

 MD| ***************************************************************************
 MD| Step number                                                               4
 MD| Time [fs]                                                          2.000000
 MD| Conserved quantity [hartree]                            -0.880616980168E+04
 MD| ---------------------------------------------------------------------------
 MD|                                          Instantaneous             Averages
 MD| CPU time per MD step [s]                     13.726836            50.489432
 MD| Energy drift per atom [K]          -0.832044119025E+02  -0.617358903967E+02
 MD| Potential energy [hartree]         -0.880885812389E+04  -0.880861414991E+04
 MD| Kinetic energy [hartree]            0.268832221373E+01   0.245065209050E+01
 MD| Temperature [K]                             368.687948           336.092856
 MD| ***************************************************************************

 Number of electrons:                                                       4096
 Number of occupied orbitals:                                               2048
 Number of molecular orbitals:                                              2048

 Number of orbital functions:                                              20480
 Number of independent orbital functions:                                  20480

 Extrapolation method: PS Nth order
 Extrapolation order:  3


 SCF WAVEFUNCTION OPTIMIZATION

  ----------------------------------- OT ---------------------------------------
  Minimizer      : DIIS                : direct inversion
                                         in the iterative subspace
                                         using   7 DIIS vectors
                                         safer DIIS on
  Preconditioner : FULL_KINETIC        : inversion of T + eS
  Precond_solver : DEFAULT
  stepsize       :    0.15000000                  energy_gap     :    0.20000000
  eps_taylor     :   0.10000E-15                  max_taylor     :             4
  ----------------------------------- OT ---------------------------------------

  Step     Update method      Time    Convergence         Total energy    Change
  ------------------------------------------------------------------------------
     1 OT DIIS     0.15E+00    4.3     0.00005398     -8808.8521911890 -8.81E+03
     2 OT DIIS     0.15E+00    1.5     0.00004360     -8808.8685913443 -1.64E-02
     3 OT DIIS     0.15E+00    1.8     0.00002876     -8808.8948204216 -2.62E-02
     4 OT DIIS     0.15E+00    1.8     0.00002104     -8808.9082128288 -1.34E-02
     5 OT DIIS     0.15E+00    1.9     0.00001317     -8808.9185199960 -1.03E-02
     6 OT DIIS     0.15E+00    1.9     0.00000843     -8808.9223717153 -3.85E-03

  *** SCF run converged in     6 steps ***


  Electronic density on regular grids:      -4096.0000071800       -0.0000071800
  Core density on regular grids:             4095.9999999999       -0.0000000001
  Total charge density on r-space grids:       -0.0000071801
  Total charge density g-space grids:          -0.0000071801

  Overlap energy of the core charge distribution:               0.00001548084654
  Self energy of the core charge distribution:             -22442.43995950839599
  Core Hamiltonian energy:                                   6547.40962050501730
  Hartree energy:                                            9201.58656374339989
  Exchange-correlation energy:                              -2115.47861193618292

  Total energy:                                             -8808.92237171531451

 ENERGY| Total FORCE_EVAL ( QS ) energy [a.u.]:            -8808.923934820060822

 MD| ***************************************************************************
 MD| Step number                                                               5
 MD| Time [fs]                                                          2.500000
 MD| Conserved quantity [hartree]                            -0.880617228976E+04
 MD| ---------------------------------------------------------------------------
 MD|                                          Instantaneous             Averages
 MD| CPU time per MD step [s]                     15.106913            43.412929
 MD| Energy drift per atom [K]          -0.837159177124E+02  -0.661318958598E+02
 MD| Potential energy [hartree]         -0.880892393482E+04  -0.880867610689E+04
 MD| Kinetic energy [hartree]            0.275164505947E+01   0.251085068430E+01
 MD| Temperature [K]                             377.372313           344.348747
 MD| ***************************************************************************

 Number of electrons:                                                       4096
 Number of occupied orbitals:                                               2048
 Number of molecular orbitals:                                              2048

 Number of orbital functions:                                              20480
 Number of independent orbital functions:                                  20480

 Extrapolation method: PS Nth order
 Extrapolation order:  3


 SCF WAVEFUNCTION OPTIMIZATION

  ----------------------------------- OT ---------------------------------------
  Minimizer      : DIIS                : direct inversion
                                         in the iterative subspace
                                         using   7 DIIS vectors
                                         safer DIIS on
  Preconditioner : FULL_KINETIC        : inversion of T + eS
  Precond_solver : DEFAULT
  stepsize       :    0.15000000                  energy_gap     :    0.20000000
  eps_taylor     :   0.10000E-15                  max_taylor     :             4
  ----------------------------------- OT ---------------------------------------

  Step     Update method      Time    Convergence         Total energy    Change
  ------------------------------------------------------------------------------
     1 OT DIIS     0.15E+00    4.3     0.00004459     -8808.8152217484 -8.81E+03
     2 OT DIIS     0.15E+00    1.5     0.00003657     -8808.8265178200 -1.13E-02
     3 OT DIIS     0.15E+00    1.5     0.00002088     -8808.8466700156 -2.02E-02
     4 OT DIIS     0.15E+00    1.5     0.00001310     -8808.8539213977 -7.25E-03
     5 OT DIIS     0.15E+00    1.5     0.00000884     -8808.8567199923 -2.80E-03

  *** SCF run converged in     5 steps ***


  Electronic density on regular grids:      -4096.0000062625       -0.0000062625
  Core density on regular grids:             4095.9999999983       -0.0000000017
  Total charge density on r-space grids:       -0.0000062642
  Total charge density g-space grids:          -0.0000062642

  Overlap energy of the core charge distribution:               0.00000971625993
  Self energy of the core charge distribution:             -22442.43995950839599
  Core Hamiltonian energy:                                   6531.17273422899234
  Hartree energy:                                            9213.44168181099849
  Exchange-correlation energy:                              -2111.03118624013314

  Total energy:                                             -8808.85671999227998

 ENERGY| Total FORCE_EVAL ( QS ) energy [a.u.]:            -8808.858096035282870

 MD| ***************************************************************************
 MD| Step number                                                               6
 MD| Time [fs]                                                          3.000000
 MD| Conserved quantity [hartree]                            -0.880617011354E+04
 MD| ---------------------------------------------------------------------------
 MD|                                          Instantaneous             Averages
 MD| CPU time per MD step [s]                     12.185725            38.208395
 MD| Energy drift per atom [K]          -0.832685253283E+02  -0.689880007712E+02
 MD| Potential energy [hartree]         -0.880885809604E+04  -0.880870643842E+04
 MD| Kinetic energy [hartree]            0.268798249342E+01   0.254037265249E+01
 MD| Temperature [K]                             368.641357           348.397516
 MD| ***************************************************************************

 Number of electrons:                                                       4096
 Number of occupied orbitals:                                               2048
 Number of molecular orbitals:                                              2048

 Number of orbital functions:                                              20480
 Number of independent orbital functions:                                  20480

 Extrapolation method: PS Nth order
 Extrapolation order:  3


 SCF WAVEFUNCTION OPTIMIZATION

  ----------------------------------- OT ---------------------------------------
  Minimizer      : DIIS                : direct inversion
                                         in the iterative subspace
                                         using   7 DIIS vectors
                                         safer DIIS on
  Preconditioner : FULL_KINETIC        : inversion of T + eS
  Precond_solver : DEFAULT
  stepsize       :    0.15000000                  energy_gap     :    0.20000000
  eps_taylor     :   0.10000E-15                  max_taylor     :             4
  ----------------------------------- OT ---------------------------------------

  Step     Update method      Time    Convergence         Total energy    Change
  ------------------------------------------------------------------------------
     1 OT DIIS     0.15E+00    4.3     0.00004551     -8808.6384767404 -8.81E+03
     2 OT DIIS     0.15E+00    1.5     0.00003729     -8808.6502436163 -1.18E-02
     3 OT DIIS     0.15E+00    1.5     0.00002023     -8808.6710753135 -2.08E-02
     4 OT DIIS     0.15E+00    1.5     0.00001308     -8808.6771448810 -6.07E-03
     5 OT DIIS     0.15E+00    1.5     0.00000755     -8808.6802140620 -3.07E-03

  *** SCF run converged in     5 steps ***


  Electronic density on regular grids:      -4096.0000050933       -0.0000050933
  Core density on regular grids:             4095.9999999989       -0.0000000011
  Total charge density on r-space grids:       -0.0000050945
  Total charge density g-space grids:          -0.0000050945

  Overlap energy of the core charge distribution:               0.00000622092242
  Self energy of the core charge distribution:             -22442.43995950839599
  Core Hamiltonian energy:                                   6517.03118133550379
  Hartree energy:                                            9223.86272564008686
  Exchange-correlation energy:                              -2107.13416775012047

  Total energy:                                             -8808.68021406200387

 ENERGY| Total FORCE_EVAL ( QS ) energy [a.u.]:            -8808.681147652092477

 MD| ***************************************************************************
 MD| Step number                                                               7
 MD| Time [fs]                                                          3.500000
 MD| Conserved quantity [hartree]                            -0.880616595771E+04
 MD| ---------------------------------------------------------------------------
 MD|                                          Instantaneous             Averages
 MD| CPU time per MD step [s]                     12.243363            34.499104
 MD| Energy drift per atom [K]          -0.824141594917E+02  -0.709060234456E+02
 MD| Potential energy [hartree]         -0.880868114765E+04  -0.880870282545E+04
 MD| Kinetic energy [hartree]            0.251518994077E+01   0.253677512224E+01
 MD| Temperature [K]                             344.943851           347.904135
 MD| ***************************************************************************

 Number of electrons:                                                       4096
 Number of occupied orbitals:                                               2048
 Number of molecular orbitals:                                              2048

 Number of orbital functions:                                              20480
 Number of independent orbital functions:                                  20480

 Extrapolation method: PS Nth order
 Extrapolation order:  3


 SCF WAVEFUNCTION OPTIMIZATION

  ----------------------------------- OT ---------------------------------------
  Minimizer      : DIIS                : direct inversion
                                         in the iterative subspace
                                         using   7 DIIS vectors
                                         safer DIIS on
  Preconditioner : FULL_KINETIC        : inversion of T + eS
  Precond_solver : DEFAULT
  stepsize       :    0.15000000                  energy_gap     :    0.20000000
  eps_taylor     :   0.10000E-15                  max_taylor     :             4
  ----------------------------------- OT ---------------------------------------

  Step     Update method      Time    Convergence         Total energy    Change
  ------------------------------------------------------------------------------
     1 OT DIIS     0.15E+00    4.3     0.00004639     -8808.4083516161 -8.81E+03
     2 OT DIIS     0.15E+00    1.5     0.00003771     -8808.4205204058 -1.22E-02
     3 OT DIIS     0.15E+00    1.5     0.00002094     -8808.4409406987 -2.04E-02
     4 OT DIIS     0.15E+00    1.5     0.00001360     -8808.4479497273 -7.01E-03
     5 OT DIIS     0.15E+00    1.5     0.00001073     -8808.4504245635 -2.47E-03
     6 OT DIIS     0.15E+00    1.5     0.00000737     -8808.4530065873 -2.58E-03

  *** SCF run converged in     6 steps ***


  Electronic density on regular grids:      -4096.0000038468       -0.0000038468
  Core density on regular grids:             4096.0000000008        0.0000000008
  Total charge density on r-space grids:       -0.0000038460
  Total charge density g-space grids:          -0.0000038460

  Overlap energy of the core charge distribution:               0.00000436187217
  Self energy of the core charge distribution:             -22442.43995950839599
  Core Hamiltonian energy:                                   6506.06509212823676
  Hartree energy:                                            9232.01158694184414
  Exchange-correlation energy:                              -2104.08973051083012

  Total energy:                                             -8808.45300658727501

 ENERGY| Total FORCE_EVAL ( QS ) energy [a.u.]:            -8808.454571274956834

 MD| ***************************************************************************
 MD| Step number                                                               8
 MD| Time [fs]                                                          4.000000
 MD| Conserved quantity [hartree]                            -0.880616115078E+04
 MD| ---------------------------------------------------------------------------
 MD|                                          Instantaneous             Averages
 MD| CPU time per MD step [s]                     13.748894            31.905328
 MD| Energy drift per atom [K]          -0.814259394563E+02  -0.722210129469E+02
 MD| Potential energy [hartree]         -0.880845457127E+04  -0.880867179368E+04
 MD| Kinetic energy [hartree]            0.229342049156E+01   0.250635579341E+01
 MD| Temperature [K]                             314.529445           343.732299
 MD| ***************************************************************************

 Number of electrons:                                                       4096
 Number of occupied orbitals:                                               2048
 Number of molecular orbitals:                                              2048

 Number of orbital functions:                                              20480
 Number of independent orbital functions:                                  20480

 Extrapolation method: PS Nth order
 Extrapolation order:  3


 SCF WAVEFUNCTION OPTIMIZATION

  ----------------------------------- OT ---------------------------------------
  Minimizer      : DIIS                : direct inversion
                                         in the iterative subspace
                                         using   7 DIIS vectors
                                         safer DIIS on
  Preconditioner : FULL_KINETIC        : inversion of T + eS
  Precond_solver : DEFAULT
  stepsize       :    0.15000000                  energy_gap     :    0.20000000
  eps_taylor     :   0.10000E-15                  max_taylor     :             4
  ----------------------------------- OT ---------------------------------------

  Step     Update method      Time    Convergence         Total energy    Change
  ------------------------------------------------------------------------------
     1 OT DIIS     0.15E+00    4.3     0.00004050     -8808.2146966440 -8.81E+03
     2 OT DIIS     0.15E+00    1.5     0.00003407     -8808.2241583526 -9.46E-03
     3 OT DIIS     0.15E+00    1.5     0.00001718     -8808.2450180711 -2.09E-02
     4 OT DIIS     0.15E+00    1.5     0.00001245     -8808.2495172970 -4.50E-03
     5 OT DIIS     0.15E+00    1.5     0.00000891     -8808.2522162026 -2.70E-03

  *** SCF run converged in     5 steps ***


  Electronic density on regular grids:      -4096.0000022243       -0.0000022243
  Core density on regular grids:             4096.0000000016        0.0000000016
  Total charge density on r-space grids:       -0.0000022227
  Total charge density g-space grids:          -0.0000022227

  Overlap energy of the core charge distribution:               0.00000353692317
  Self energy of the core charge distribution:             -22442.43995950839599
  Core Hamiltonian energy:                                   6498.75943060106783
  Hartree energy:                                            9237.49748089482091
  Exchange-correlation energy:                              -2102.06917172697194

  Total energy:                                             -8808.25221620255616

 ENERGY| Total FORCE_EVAL ( QS ) energy [a.u.]:            -8808.253873716821545

 MD| ***************************************************************************
 MD| Step number                                                               9
 MD| Time [fs]                                                          4.500000
 MD| Conserved quantity [hartree]                            -0.880615635570E+04
 MD| ---------------------------------------------------------------------------
 MD|                                          Instantaneous             Averages
 MD| CPU time per MD step [s]                     12.174791            29.713046
 MD| Energy drift per atom [K]          -0.804401553792E+02  -0.731342509950E+02
 MD| Potential energy [hartree]         -0.880825387372E+04  -0.880862535813E+04
 MD| Kinetic energy [hartree]            0.209751801230E+01   0.246092937328E+01
 MD| Temperature [K]                             287.662546           337.502326
 MD| ***************************************************************************

 Number of electrons:                                                       4096
 Number of occupied orbitals:                                               2048
 Number of molecular orbitals:                                              2048

 Number of orbital functions:                                              20480
 Number of independent orbital functions:                                  20480

 Extrapolation method: PS Nth order
 Extrapolation order:  3


 SCF WAVEFUNCTION OPTIMIZATION

  ----------------------------------- OT ---------------------------------------
  Minimizer      : DIIS                : direct inversion
                                         in the iterative subspace
                                         using   7 DIIS vectors
                                         safer DIIS on
  Preconditioner : FULL_KINETIC        : inversion of T + eS
  Precond_solver : DEFAULT
  stepsize       :    0.15000000                  energy_gap     :    0.20000000
  eps_taylor     :   0.10000E-15                  max_taylor     :             4
  ----------------------------------- OT ---------------------------------------

  Step     Update method      Time    Convergence         Total energy    Change
  ------------------------------------------------------------------------------
     1 OT DIIS     0.15E+00    4.3     0.00004012     -8808.1037283898 -8.81E+03
     2 OT DIIS     0.15E+00    1.5     0.00003342     -8808.1129256037 -9.20E-03
     3 OT DIIS     0.15E+00    1.5     0.00002048     -8808.1296917998 -1.68E-02
     4 OT DIIS     0.15E+00    1.5     0.00001263     -8808.1379700552 -8.28E-03
     5 OT DIIS     0.15E+00    1.5     0.00001017     -8808.1402114334 -2.24E-03
     6 OT DIIS     0.15E+00    1.5     0.00000715     -8808.1425470554 -2.34E-03

  *** SCF run converged in     6 steps ***


  Electronic density on regular grids:      -4096.0000006753       -0.0000006753
  Core density on regular grids:             4096.0000000008        0.0000000008
  Total charge density on r-space grids:       -0.0000006746
  Total charge density g-space grids:          -0.0000006746

  Overlap energy of the core charge distribution:               0.00000340787754
  Self energy of the core charge distribution:             -22442.43995950839599
  Core Hamiltonian energy:                                   6495.52247016416277
  Hartree energy:                                            9239.94935421377886
  Exchange-correlation energy:                              -2101.17441533278725

  Total energy:                                             -8808.14254705536405

 ENERGY| Total FORCE_EVAL ( QS ) energy [a.u.]:            -8808.143948122255097

 MD| ***************************************************************************
 MD| Step number                                                              10
 MD| Time [fs]                                                          5.000000
 MD| Conserved quantity [hartree]                            -0.880615520823E+04
 MD| ---------------------------------------------------------------------------
 MD|                                          Instantaneous             Averages
 MD| CPU time per MD step [s]                     13.689721            28.110714
 MD| Energy drift per atom [K]          -0.802042551997E+02  -0.738412514154E+02
 MD| Potential energy [hartree]         -0.880814394812E+04  -0.880857721713E+04
 MD| Kinetic energy [hartree]            0.198873989008E+01   0.241371042496E+01
 MD| Temperature [K]                             272.744251           331.026519
 MD| ***************************************************************************

 -------------------------------------------------------------------------------
 -                                                                             -
 -                                DBCSR STATISTICS                             -
 -                                                                             -
 -------------------------------------------------------------------------------
 COUNTER                                    TOTAL       BLAS       SMM       ACC
 flops     9 x    32 x    32          13287555072     100.0%      0.0%      0.0%
 flops    22 x    32 x    32          16240345088     100.0%      0.0%      0.0%
 flops     9 x     9 x    64        5648350040064     100.0%      0.0%      0.0%
 flops     9 x    22 x    64        7855827369984     100.0%      0.0%      0.0%
 flops    22 x     9 x    64        7866447519744     100.0%      0.0%      0.0%
 flops    22 x    22 x    64       11004752822272     100.0%      0.0%      0.0%
 flops   128 x    64 x    64       14465449852928     100.0%      0.0%      0.0%
 flops     9 x    32 x     9       23722505551872     100.0%      0.0%      0.0%
 flops    22 x    32 x     9       33153656684544     100.0%      0.0%      0.0%
 flops     9 x    32 x    22       33153656684544     100.0%      0.0%      0.0%
 flops    22 x    32 x    22       46115724689408     100.0%      0.0%      0.0%
 flops   128 x    64 x   640       77824807403520     100.0%      0.0%      0.0%
 flops  1280 x    64 x    64       95863670046720     100.0%      0.0%      0.0%
 flops  1280 x    64 x   640      218184338636800     100.0%      0.0%      0.0%
 flops inhomo. stacks                           0       0.0%      0.0%      0.0%
 flops total                       574.888715E+12     100.0%      0.0%      0.0%
 flops max/rank                      1.133443E+12     100.0%      0.0%      0.0%
 matmuls inhomo. stacks                         0       0.0%      0.0%      0.0%
 matmuls total                        12673738880     100.0%      0.0%      0.0%
 number of processed stacks              61021760     100.0%      0.0%      0.0%
 average stack size                                   207.7       0.0       0.0
 marketing flops                     1.147134E+15
 -------------------------------------------------------------------------------
 # multiplications                           2431
 max memory usage/rank             347.754496E+06
 # max total images/rank                        2
 # max 3D layers                                1
 # MPI messages exchanged                75924992
 MPI messages size (bytes):
  total size                        40.178769E+12
  min size                           0.000000E+00
  max size                           6.553600E+06
  average size                     529.190312E+03
 MPI breakdown and total messages size (bytes):
             size <=      128              507232                        0
       128 < size <=     8192                   0                        0
      8192 < size <=    32768            21509280             704729579520
     32768 < size <=   131072            13364224             875837784064
    131072 < size <=  4194304            38528512           25387824241184
   4194304 < size <= 16777216             2015744           13210379878400
  16777216 < size                               0                        0
 -------------------------------------------------------------------------------

 *** WARNING in dbcsr_mm.F:294 :: Using a non-square number of MPI ranks ***
 *** might lead to poor performance. Used ranks: 512 Suggested: 529 1024 ***

 -------------------------------------------------------------------------------
 -                                                                             -
 -                      DBCSR MESSAGE PASSING PERFORMANCE                      -
 -                                                                             -
 -------------------------------------------------------------------------------
 ROUTINE             CALLS      AVE VOLUME [Bytes]
 MP_Bcast               15                     12.
 MP_Allreduce        12959                     67.
 MP_Alltoall          9270                 395450.
 MP_ISend           308916                 257593.
 MP_IRecv           308916                 257655.
 -------------------------------------------------------------------------------

 -------------------------------------------------------------------------------
 -                                                                             -
 -                                GRID STATISTICS                              -
 -                                                                             -
 -------------------------------------------------------------------------------
 LP    KERNEL             BACKEND                              COUNT     PERCENT
 1     collocate ortho    REF                              135745301      20.79%
 1     integrate ortho    REF                              130493488      19.98%
 2     integrate ortho    REF                               88995618      13.63%
 2     collocate ortho    REF                               84560451      12.95%
 0     collocate ortho    REF                               75171698      11.51%
 0     integrate ortho    REF                               68664071      10.51%
 3     integrate ortho    REF                               26282166       4.02%
 3     collocate ortho    REF                               20755016       3.18%
 0     collocate general  REF                                8650752       1.32%
 1     integrate general  REF                                8650752       1.32%
 4     integrate ortho    REF                                3293394       0.50%
 4     collocate ortho    REF                                1638196       0.25%
 5     integrate ortho    REF                                 141925       0.02%
 -------------------------------------------------------------------------------

 MEMORY| Estimated peak process memory [MiB]                                 327

 -------------------------------------------------------------------------------
 -                                                                             -
 -                         MESSAGE PASSING PERFORMANCE                         -
 -                                                                             -
 -------------------------------------------------------------------------------

 ROUTINE             CALLS      AVE VOLUME [Bytes]
 MP_Group                4
 MP_Bcast             4017                  57942.
 MP_Allreduce        11016                   1385.
 MP_Sync              1660
 MP_Alltoall          2222              927812270.
 MP_ISendRecv       259588                   8208.
 MP_Wait            272938
 MP_comm_split          66
 MP_ISend            31042                  40481.
 MP_IRecv            31042                  40481.
 -------------------------------------------------------------------------------


 -------------------------------------------------------------------------------
 -                                                                             -
 -                           R E F E R E N C E S                               -
 -                                                                             -
 -------------------------------------------------------------------------------
 
 CP2K version 8.2, the CP2K developers group (2021).
 CP2K is freely available from https://www.cp2k.org/ .

 Kuehne,Thomas D.; Iannuzzi,Marcella; Del Ben,Mauro;
 Rybkin,Vladimir V.; Seewald,Patrick; Stein,Frederick; Laino,Teodoro;
 Khaliullin,Rustam Z.; Schuett,Ole; Schiffmann,Florian; Golze,Dorothea;
 Wilhelm,Jan; Chulkov,Sergey; Bani-Hashemian,Mohammad Hossein;
 Weber,Valery; Borstnik,Urban; Taillefumier,Mathieu;
 Jakobovits,Alice Shoshana; Lazzaro,Alfio; Pabst,Hans; Mueller,Tiziano;
 Schade,Robert; Guidon,Manuel; Andermatt,Samuel; Holmberg,Nico;
 Schenter,Gregory K.; Hehn,Anna; Bussy,Augustin; Belleflamme,Fabian;
 Tabacchi,Gloria; Gloess,Andreas; Lass,Michael; Bethune,Iain;
 Mundy,Christopher J.; Plessl,Christian; Watkins,Matt;
 VandeVondele,Joost; Krack,Matthias; Hutter,Juerg. 
 The Journal of Chemical Physics, 152 (19), (2020). 
 CP2K: An electronic structure and molecular dynamics software package -
 Quickstep: Efficient and accurate electronic structure calculations.
 https://doi.org/10.1063/5.0007045

 Schuett, Ole; Messmer, Peter; Hutter, Juerg; VandeVondele, Joost. 
 Electronic Structure Calculations on Graphics Processing Units, John
 Wiley & Sons, Ltd, 173-190 (2016). 
 GPU-Accelerated Sparse Matrix-Matrix Multiplication for
 Linear Scaling Density Functional Theory.
 https://doi.org/10.1002/9781118670712.ch8

 Borstnik, U; VandeVondele, J; Weber, V; Hutter, J. 
 PARALLEL COMPUTING, 40 (5-6), 47-58 (2014). 
 Sparse matrix multiplication: The distributed block-compressed sparse
 row library.
 https://doi.org/10.1016/j.parco.2014.03.012

 Hutter, J; Iannuzzi, M; Schiffmann, F; VandeVondele, J. 
 WIREs Comput Mol Sci., 4 (1), 15-25 (2014). 
 CP2K: atomistic simulations of condensed matter systems.
 https://doi.org/10.1002/wcms.1159

 Marek, A; Blum, V; Johanni, R; Havu, V; Lang, B; Auckenthaler, T;
 Heinecke, A; Bungartz, H; Lederer, H. 
 Journal of Physics: Condensed Matter, 26 (21), (2014). 
 The ELPA library: scalable parallel eigenvalue solutions for
 electronic structure
 theory and computational science.
 https://doi.org/10.1088/0953-8984/26/21/213201

 Krack, M. 
 THEORETICAL CHEMISTRY ACCOUNTS, 114 (1-3), 145-152 (2005). 
 Pseudopotentials for H to Kr optimized for gradient-corrected
 exchange-correlation functionals.
 https://doi.org/10.1007/s00214-005-0655-y

 VandeVondele, J; Krack, M; Mohamed, F; Parrinello, M; Chassaing, T;
 Hutter, J. COMPUTER PHYSICS COMMUNICATIONS, 167 (2), 103-128 (2005). 
 QUICKSTEP: Fast and accurate density functional calculations using a
 mixed Gaussian and plane waves approach.
 https://doi.org/10.1016/j.cpc.2004.12.014

 Frigo, M; Johnson, SG. 
 PROCEEDINGS OF THE IEEE, 93 (2), 216-231 (2005). 
 The design and implementation of FFTW3.
 https://doi.org/10.1109/JPROC.2004.840301

 VandeVondele, J; Hutter, J. 
 JOURNAL OF CHEMICAL PHYSICS, 118 (10), 4365-4369 (2003). 
 An efficient orbital transformation method for electronic structure
 calculations.
 https://doi.org/10.1063/1.1543154

 Hartwigsen, C; Goedecker, S; Hutter, J. 
 PHYSICAL REVIEW B, 58 (7), 3641-3662 (1998). 
 Relativistic separable dual-space Gaussian pseudopotentials from H to Rn.
 https://doi.org/10.1103/PhysRevB.58.3641

 Lippert, G; Hutter, J; Parrinello, M. 
 MOLECULAR PHYSICS, 92 (3), 477-487 (1997). 
 A hybrid Gaussian and plane wave density functional scheme.
 https://doi.org/10.1080/002689797170220

 Goedecker, S; Teter, M; Hutter, J. 
 PHYSICAL REVIEW B, 54 (3), 1703-1710 (1996). 
 Separable dual-space Gaussian pseudopotentials.
 https://doi.org/10.1103/PhysRevB.54.1703


 -------------------------------------------------------------------------------
 -                                                                             -
 -                                T I M I N G                                  -
 -                                                                             -
 -------------------------------------------------------------------------------
 SUBROUTINE                       CALLS  ASD         SELF TIME        TOTAL TIME
                                MAXIMUM       AVERAGE  MAXIMUM  AVERAGE  MAXIMUM
 CP2K                                 1  1.0    0.023    0.025  281.301  281.302
 qs_mol_dyn_low                       1  2.0    0.005    0.006  281.119  281.159
 qs_forces                           11  3.9    0.007    0.008  280.950  280.952
 qs_energies                         11  4.9    0.002    0.002  276.856  276.903
 scf_env_do_scf                      11  5.9    0.001    0.002  236.460  236.462
 scf_env_do_scf_inner_loop          116  6.6    0.004    0.009  198.615  198.617
 qs_scf_new_mos                     116  7.6    0.001    0.001  159.244  159.720
 qs_scf_loop_do_ot                  116  8.6    0.001    0.001  159.243  159.719
 dbcsr_multiply_generic            2431 12.5    0.183    0.198  156.342  158.100
 ot_scf_mini                        116  9.6    0.004    0.005  150.418  150.922
 velocity_verlet                     10  3.0    0.003    0.004  150.882  150.883
 multiply_cannon                   2431 13.5    0.299    0.338  134.943  138.452
 multiply_cannon_loop              2431 14.5    0.591    0.681  132.593  136.067
 ot_mini                            116 10.6    0.002    0.003   97.779   98.296
 multiply_cannon_multrec          77792 15.5   73.964   82.838   73.977   82.851
 mp_waitall_1                    769642 15.7   54.205   68.277   54.205   68.277
 apply_preconditioner_dbcsr         127 12.6    0.000    0.001   54.886   56.128
 apply_single                       127 13.6    0.001    0.001   54.886   56.128
 ot_diis_step                       116 11.6    0.008    0.011   52.483   52.484
 multiply_cannon_metrocomm3       77792 15.5    0.195    0.231   30.334   46.595
 qs_ot_get_derivative               116 11.6    0.001    0.002   45.079   45.591
 init_scf_loop                       11  6.9    0.001    0.002   37.732   37.734
 prepare_preconditioner              11  7.9    0.000    0.000   33.495   33.554
 make_preconditioner                 11  8.9    0.000    0.000   33.495   33.553
 qs_ot_get_p                        127 10.4    0.001    0.002   32.061   32.743
 make_full_inverse_cholesky          11  9.9    0.001    0.001   32.209   32.365
 rebuild_ks_matrix                  127  8.3    0.001    0.002   30.608   31.091
 qs_ks_build_kohn_sham_matrix       127  9.3    0.022    0.026   30.606   31.090
 multiply_cannon_metrocomm1       77792 15.5    0.121    0.144   14.857   30.730
 qs_ks_update_qs_env                127  7.6    0.002    0.003   27.742   28.179
 mp_irecv_dv                     161357 16.5   11.908   27.402   11.908   27.402
 qs_energies_init_hamiltonians       11  5.9    0.001    0.001   25.342   25.342
 qs_env_update_s_mstruct             11  6.9    0.000    0.000   24.831   24.979
 qs_create_task_list                 11  7.9    0.000    0.000   23.576   23.700
 generate_qs_task_list               11  8.9    0.044    0.068   23.576   23.699
 distribute_tasks                    11  9.9    0.013    0.016   23.526   23.653
 create_local_tasks                  11 10.9    0.008    0.010   23.298   23.431
 mp_alltoall_l11v                    11 11.9   23.288   23.421   23.288   23.421
 qs_ot_p2m_diag                      66 11.2    0.032    0.039   22.035   22.062
 multiply_cannon_metrocomm4       75361 15.5    0.205    0.243   10.283   22.002
 cp_dbcsr_syevd                      66 12.2    0.011    0.015   21.056   21.066
 cp_fm_diag_elpa                     66 13.2    0.000    0.001   20.889   20.899
 cp_fm_redistribute_end              66 14.2   19.263   20.762   19.321   20.767
 cp_fm_diag_elpa_base                66 14.2    1.417   20.237    1.432   20.384
 qs_rho_update_rho                  127  7.7    0.001    0.001   16.576   16.714
 calculate_rho_elec                 127  8.7    0.021    0.023   16.575   16.713
 qs_ot_get_derivative_diag           62 12.2    0.001    0.002   15.744   16.067
 make_m2s                          4862 13.5    0.126    0.151   15.573   15.972
 cp_fm_cholesky_invert               11 10.9   14.935   14.943   14.935   14.943
 sum_up_and_integrate               127 10.3    0.022    0.038   13.349   13.386
 integrate_v_rspace                 127 11.3    0.004    0.006   13.327   13.367
 make_images                       4862 14.5    0.314    0.347   12.852   13.175
 init_scf_run                        11  5.9    0.000    0.002   12.903   12.904
 scf_env_initial_rho_setup           11  6.9    0.000    0.001   12.902   12.904
 mp_alltoall_d11v                  2299 14.0   10.559   11.105   10.559   11.105
 qs_ot_get_derivative_taylor         54 13.0    0.001    0.002   10.633   10.854
 rs_pw_transfer                    1038 11.9    0.021    0.029    9.609   10.601
 calculate_dm_sparse                127  9.5    0.001    0.001    9.805   10.308
 cp_fm_cholesky_decompose            22 10.9   10.079   10.119   10.079   10.119
 wfi_extrapolate                     11  7.9    0.002    0.004    9.813    9.813
 dbcsr_complete_redistribute        361 12.5    0.491    0.517    9.381    9.708
 density_rs2pw                      127  9.7    0.007    0.008    8.276    9.226
 copy_dbcsr_to_fm                   169 11.5    0.005    0.005    8.279    8.486
 make_images_data                  4862 15.5    0.091    0.136    7.832    8.471
 hybrid_alltoall_any               5031 16.4    0.150    2.207    7.209    8.113
 grid_collocate_task_list           127  9.7    6.917    7.545    6.917    7.545
 multiply_cannon_metrocomm2       72930 15.5    0.180    0.209    2.551    7.515
 transfer_dbcsr_to_fm                11 10.9    0.000    0.000    7.294    7.376
 qs_ot_get_orbitals                 116 10.6    0.001    0.001    7.046    7.162
 pw_transfer                       1535 11.6    0.194    0.236    6.866    7.002
 fft_wrap_pw1pw2                   1281 12.7    0.011    0.015    6.619    6.740
 mp_sum_l                         11831 13.4    4.475    6.392    4.475    6.392
 grid_integrate_task_list           127 12.3    5.948    6.268    5.948    6.268
 potential_pw2rs                    127 12.3    0.006    0.007    6.035    6.112
 -------------------------------------------------------------------------------

 The number of warnings for this run is : 2
 
 -------------------------------------------------------------------------------
  **** **** ******  **  PROGRAM ENDED AT                 2022-01-17 17:08:45.452
 ***** ** ***  *** **   PROGRAM RAN ON                                 nid003214
 **    ****   ******    PROGRAM RAN BY                                    hjudge
 ***** **    ** ** **   PROGRAM PROCESS ID                                 58862
  **** **  *******  **  PROGRAM STOPPED IN /mnt/lustre/a2fs-work2/work/z19/z19/h
                                           judge/CUG/archer2/CPU/CP2K/H2O-512/4N
                                           ODES/128CPN/1THREADS
