 DBCSR| CPU Multiplication driver                                           BLAS
 DBCSR| Multrec recursion limit                                              512
 DBCSR| Multiplication stack size                                           1000
 DBCSR| Maximum elements for images                                    UNLIMITED
 DBCSR| Multiplicative factor virtual images                                   1
 DBCSR| Use multiplication densification                                       T
 DBCSR| Multiplication size stacks                                             3
 DBCSR| Use memory pool for CPU allocation                                     F
 DBCSR| Number of 3D layers                                               SINGLE
 DBCSR| Use MPI memory allocation                                              F
 DBCSR| Use RMA algorithm                                                      F
 DBCSR| Use Communication thread                                               T
 DBCSR| Communication thread load                                             75
 DBCSR| MPI: My node id                                                        0
 DBCSR| MPI: Number of nodes                                                1024
 DBCSR| OMP: Current number of threads                                         4
 DBCSR| OMP: Max number of threads                                             4
 DBCSR| Split modifier for TAS multiplication algorithm                  1.0E+00


  **** **** ******  **  PROGRAM STARTED AT               2022-01-20 10:49:22.204
 ***** ** ***  *** **   PROGRAM STARTED ON                             nid003678
 **    ****   ******    PROGRAM STARTED BY                                hjudge
 ***** **    ** ** **   PROGRAM PROCESS ID                                174707
  **** **  *******  **  PROGRAM STARTED IN /mnt/lustre/a2fs-work2/work/z19/z19/h
                                           judge/CUG/archer2/CPU/CP2K/H2O-512/32
                                           NODES/128CPN/4THREADS

 CP2K| version string:                                          CP2K version 8.2
 CP2K| source code revision number:                                  git:310b7ab
 CP2K| cp2kflags: omp libint fftw3 libxc elpa parallel mpi3 scalapack plumed2   
 CP2K| is freely available from                            https://www.cp2k.org/
 CP2K| Program compiled at                          Thu Dec  2 10:30:45 GMT 2021
 CP2K| Program compiled on                                                  ln02
 CP2K| Program compiled for                                              ARCHER2
 CP2K| Data directory path         /work/y07/shared/apps/core/cp2k/cp2k-8.2/data
 CP2K| Input file name                                               H2O-512.inp

 GLOBAL| Force Environment number                                              1
 GLOBAL| Basis set file name                                      GTH_BASIS_SETS
 GLOBAL| Potential file name                                           POTENTIAL
 GLOBAL| MM Potential file name                                     MM_POTENTIAL
 GLOBAL| Coordinate file name                                      __STD_INPUT__
 GLOBAL| Method name                                                        CP2K
 GLOBAL| Project name                                                    H2O-512
 GLOBAL| Run type                                                             MD
 GLOBAL| FFT library                                                       FFTW3
 GLOBAL| Diagonalization library                                            ELPA
 GLOBAL| Minimum number of eigenvectors for ELPA usage                        16
 GLOBAL| Orthonormality check for eigenvectors                          DISABLED
 GLOBAL| Matrix multiplication library                                    SCALAP
 GLOBAL| All-to-all communication in single precision                          F
 GLOBAL| FFTs using library dependent lengths                                  F
 GLOBAL| Grid backend                                                       AUTO
 GLOBAL| Global print level                                                  LOW
 GLOBAL| MPI I/O enabled                                                       T
 GLOBAL| Total number of message passing processes                          1024
 GLOBAL| Number of threads for this process                                    4
 GLOBAL| This output is from process                                           0
 GLOBAL| CPU model name                          AMD EPYC 7742 64-Core Processor
 GLOBAL| CPUID                                                              1002

 MEMORY| system memory details [Kb]
 MEMORY|                        rank 0           min           max       average
 MEMORY| MemTotal            263528088     263528084     263528088     263528087
 MEMORY| MemFree             249952012     249216080     250869544     249972033
 MEMORY| Buffers                 27884         25316         35584         32201
 MEMORY| Cached                1008720        618448       1600484       1061704
 MEMORY| Slab                  1592192       1514180       1635280       1589348
 MEMORY| SReclaimable            85596         82688        104816         94516
 MEMORY| MemLikelyFree       251074212     250862716     251668796     251160455


 GENERATE|  Preliminary Number of Bonds generated:                             0
 GENERATE|  Achieved consistency in connectivity generation.

 *******************************************************************************
 *******************************************************************************
 **                                                                           **
 **     #####                         ##              ##                      **
 **    ##   ##            ##          ##              ##                      **
 **   ##     ##                       ##            ######                    **
 **   ##     ##  ##   ##  ##   #####  ##  ##   ####   ##    #####    #####    **
 **   ##     ##  ##   ##  ##  ##      ## ##   ##      ##   ##   ##  ##   ##   **
 **   ##  ## ##  ##   ##  ##  ##      ####     ###    ##   ######   ######    **
 **    ##  ###   ##   ##  ##  ##      ## ##      ##   ##   ##       ##        **
 **     #######   #####   ##   #####  ##  ##  ####    ##    #####   ##        **
 **           ##                                                    ##        **
 **                                                                           **
 **                                                ... make the atoms dance   **
 **                                                                           **
 **            Copyright (C) by CP2K developers group (2000-2021)             **
 **                      J. Chem. Phys. 152, 194103 (2020)                    **
 **                                                                           **
 *******************************************************************************


 TOTAL NUMBERS AND MAXIMUM NUMBERS

  Total number of            - Atomic kinds:                                   2
                             - Atoms:                                       1536
                             - Shell sets:                                  3072
                             - Shells:                                      9216
                             - Primitive Cartesian functions:              10752
                             - Cartesian basis functions:                  21504
                             - Spherical basis functions:                  20480

  Maximum angular momentum of- Orbital basis functions:                        2
                             - Local part of the GTH pseudopotential:          2
                             - Non-local part of the GTH pseudopotential:      0


 SCF PARAMETERS         Density guess:                                    ATOMIC
                        --------------------------------------------------------
                        max_scf:                                              50
                        max_scf_history:                                       0
                        max_diis:                                              4
                        --------------------------------------------------------
                        eps_scf:                                        1.00E-05
                        eps_scf_history:                                0.00E+00
                        eps_diis:                                       1.00E-01
                        eps_eigval:                                     1.00E-05
                        --------------------------------------------------------
                        level_shift [a.u.]:                                 0.00
                        --------------------------------------------------------
                        No outer SCF

 MD_PAR| Molecular dynamics protocol (MD input parameters)
 MD_PAR| Ensemble type                                                       NVE
 MD_PAR| Number of time steps                                                 10
 MD_PAR| Time step [fs]                                                 0.500000
 MD_PAR| Temperature [K]                                              300.000000
 MD_PAR| Temperature tolerance [K]                                      0.000000
 MD_PAR| Print MD information every                                    1 step(s)
 MD_PAR| File type   Print frequency [steps]                          File names
 MD_PAR| Coordinates          1                                H2O-512-pos-1.xyz
 MD_PAR| Velocities           1                                H2O-512-vel-1.xyz
 MD_PAR| Energies             1                                   H2O-512-1.ener
 MD_PAR| Dump                20                                H2O-512-1.restart

 ROT| Rotational analysis information
 ROT| Principal axes and moments of inertia [a.u.]
 ROT|                           1                   2                   3
 ROT| Eigenvalues      6.12011925703E+09   6.17734003456E+09   6.32378668800E+09
 ROT|      x              0.229702356692      0.883899672739      0.407379670409
 ROT|      y              0.711719446246      0.132949289019     -0.689768016354
 ROT|      z              0.663846561462     -0.448381372362      0.598549820611
 ROT| Number of rotovibrational vectors                                        6

 DOF| Calculation of degrees of freedom
 DOF| Number of atoms                                                       1536
 DOF| Number of intramolecular constraints                                     0
 DOF| Number of intermolecular constraints                                     0
 DOF| Invariants (translations + rotations)                                    3
 DOF| Degrees of freedom                                                    4605

 DOF| Restraints information
 DOF| Number of intramolecular restraints                                      0
 DOF| Number of intermolecular restraints                                      0

 MD_VEL| Velocities initialization
 MD_VEL| Initial temperature [K]                                      300.000000
 MD_VEL| COM velocity             0.0000000000    -0.0000000000     0.0000000000

 Number of electrons:                                                       4096
 Number of occupied orbitals:                                               2048
 Number of molecular orbitals:                                              2048

 Number of orbital functions:                                              20480
 Number of independent orbital functions:                                  20480

 Extrapolation method: initial_guess


 SCF WAVEFUNCTION OPTIMIZATION

  ----------------------------------- OT ---------------------------------------
  Minimizer      : DIIS                : direct inversion
                                         in the iterative subspace
                                         using   7 DIIS vectors
                                         safer DIIS on
  Preconditioner : FULL_KINETIC        : inversion of T + eS
  Precond_solver : DEFAULT
  stepsize       :    0.15000000                  energy_gap     :    0.20000000
  eps_taylor     :   0.10000E-15                  max_taylor     :             4
  ----------------------------------- OT ---------------------------------------

  Step     Update method      Time    Convergence         Total energy    Change
  ------------------------------------------------------------------------------
     1 OT DIIS     0.15E+00   14.7     0.00467324     -8480.4728425690 -8.48E+03
     2 OT DIIS     0.15E+00    0.6     0.00318266     -8587.4488310143 -1.07E+02
     3 OT DIIS     0.15E+00    0.6     0.00347210     -8644.7931966768 -5.73E+01
     4 OT DIIS     0.15E+00    0.6     0.00204380     -8678.2157923836 -3.34E+01
     5 OT DIIS     0.15E+00    0.6     0.00148292     -8717.4624183880 -3.92E+01
     6 OT DIIS     0.15E+00    0.6     0.00119954     -8738.7795043572 -2.13E+01
     7 OT DIIS     0.15E+00    0.6     0.00099038     -8755.0185947301 -1.62E+01
     8 OT DIIS     0.15E+00    0.6     0.00079894     -8767.5347825454 -1.25E+01
     9 OT DIIS     0.15E+00    0.6     0.00061581     -8780.1862563834 -1.27E+01
    10 OT DIIS     0.15E+00    0.6     0.00048147     -8788.6147471043 -8.43E+00
    11 OT DIIS     0.15E+00    0.6     0.00038278     -8794.1215228889 -5.51E+00
    12 OT DIIS     0.15E+00    0.6     0.00031960     -8797.5363589594 -3.41E+00
    13 OT DIIS     0.15E+00    0.6     0.00026435     -8799.9344030908 -2.40E+00
    14 OT DIIS     0.15E+00    0.6     0.00023004     -8801.7089305035 -1.77E+00
    15 OT DIIS     0.15E+00    0.6     0.00019592     -8803.0697888564 -1.36E+00
    16 OT DIIS     0.15E+00    0.6     0.00016642     -8804.2000843411 -1.13E+00
    17 OT DIIS     0.15E+00    0.6     0.00014164     -8805.0506655806 -8.51E-01
    18 OT DIIS     0.15E+00    0.6     0.00012638     -8805.6725421207 -6.22E-01
    19 OT DIIS     0.15E+00    0.6     0.00010717     -8806.2171485645 -5.45E-01
    20 OT DIIS     0.15E+00    0.6     0.00009868     -8806.5290018963 -3.12E-01
    21 OT DIIS     0.15E+00    0.6     0.00008484     -8806.8772741195 -3.48E-01
    22 OT DIIS     0.15E+00    0.6     0.00007717     -8807.0943334427 -2.17E-01
    23 OT DIIS     0.15E+00    0.6     0.00006815     -8807.2974129499 -2.03E-01
    24 OT DIIS     0.15E+00    0.6     0.00006019     -8807.4529078233 -1.55E-01
    25 OT DIIS     0.15E+00    0.6     0.00005010     -8807.5989834234 -1.46E-01
    26 OT DIIS     0.15E+00    0.6     0.00004000     -8807.6989662228 -1.00E-01
    27 OT DIIS     0.15E+00    0.6     0.00003462     -8807.7827122402 -8.37E-02
    28 OT DIIS     0.15E+00    0.6     0.00003071     -8807.7824932500  2.19E-04
    29 OT DIIS     0.15E+00    0.6     0.00002690     -8807.8200993195 -3.76E-02
    30 OT DIIS     0.15E+00    0.6     0.00002500     -8807.8399634016 -1.99E-02
    31 OT DIIS     0.15E+00    0.6     0.00002395     -8807.8566460922 -1.67E-02
    32 OT DIIS     0.15E+00    0.6     0.00002328     -8807.8682689643 -1.16E-02
    33 OT DIIS     0.15E+00    0.6     0.00002304     -8807.8827275965 -1.45E-02
    34 OT DIIS     0.15E+00    0.6     0.00002300     -8807.8854890296 -2.76E-03
    35 OT SD       0.15E+00    0.6     0.00002301     -8807.8907467596 -5.26E-03
    36 OT SD       0.15E+00    0.6     0.00002308     -8807.8940817096 -3.33E-03
    37 OT SD       0.15E+00    0.6     0.00002318     -8807.8974407043 -3.36E-03
    38 OT SD       0.15E+00    0.6     0.00002329     -8807.9008284718 -3.39E-03
    39 OT SD       0.15E+00    0.6     0.00002341     -8807.9042491083 -3.42E-03
    40 OT SD       0.15E+00    0.6     0.00002354     -8807.9077063659 -3.46E-03
    41 OT SD       0.15E+00    0.6     0.00002369     -8807.9112037365 -3.50E-03
    42 OT SD       0.15E+00    0.6     0.00002384     -8807.9147444866 -3.54E-03
    43 OT SD       0.15E+00    0.6     0.00002400     -8807.9183316715 -3.59E-03
    44 OT SD       0.15E+00    0.6     0.00002417     -8807.9219681410 -3.64E-03
    45 OT DIIS     0.15E+00    0.6     0.00002435     -8807.9256565391 -3.69E-03
    46 OT DIIS     0.15E+00    0.6     0.00004964     -8807.9134517979  1.22E-02
    47 OT SD       0.15E+00    0.6     0.00005092     -8807.9143020041 -8.50E-04
    48 OT SD       0.15E+00    0.6     0.00004016     -8807.9285775164 -1.43E-02
    49 OT SD       0.15E+00    0.6     0.00003560     -8807.9380642466 -9.49E-03
    50 OT SD       0.15E+00    0.6     0.00003337     -8807.9457468719 -7.68E-03

  Leaving inner SCF loop after reaching    50 steps.


  Electronic density on regular grids:      -4096.0000074539       -0.0000074539
  Core density on regular grids:             4095.9999999927       -0.0000000073
  Total charge density on r-space grids:       -0.0000074611
  Total charge density g-space grids:          -0.0000074611

  Overlap energy of the core charge distribution:               0.00004500798551
  Self energy of the core charge distribution:             -22442.43995950839599
  Core Hamiltonian energy:                                   6603.78911483611046
  Hartree energy:                                            9161.23616784910882
  Exchange-correlation energy:                              -2130.53111505671905

  Total energy:                                             -8807.94574687191016

 *** WARNING in qs_scf.F:576 :: SCF run NOT converged ***


 ENERGY| Total FORCE_EVAL ( QS ) energy [a.u.]:            -8807.952612783712539

 MD_INI| MD initialization
 MD_INI| Potential energy [hartree]                          -0.880795261278E+04
 MD_INI| Kinetic energy [hartree]                             0.218747769838E+01
 MD_INI| Temperature [K]                                              300.000000
 MD_INI| Cell volume [bohr^3]                                 1.037187315243E+05
 MD_INI| Cell volume [ang^3]                                  1.536953010365E+04
 MD_INI| Cell lengths [bohr]      4.69842608E+01  4.69842608E+01  4.69842608E+01
 MD_INI| Cell lengths [ang]       2.48630000E+01  2.48630000E+01  2.48630000E+01
 MD_INI| Cell angles [deg]        9.00000000E+01  9.00000000E+01  9.00000000E+01

 Number of electrons:                                                       4096
 Number of occupied orbitals:                                               2048
 Number of molecular orbitals:                                              2048

 Number of orbital functions:                                              20480
 Number of independent orbital functions:                                  20480

 Extrapolation method: PS Nth order
 Extrapolation order:  0


 SCF WAVEFUNCTION OPTIMIZATION

  ----------------------------------- OT ---------------------------------------
  Minimizer      : DIIS                : direct inversion
                                         in the iterative subspace
                                         using   7 DIIS vectors
                                         safer DIIS on
  Preconditioner : FULL_KINETIC        : inversion of T + eS
  Precond_solver : DEFAULT
  stepsize       :    0.15000000                  energy_gap     :    0.20000000
  eps_taylor     :   0.10000E-15                  max_taylor     :             4
  ----------------------------------- OT ---------------------------------------

  Step     Update method      Time    Convergence         Total energy    Change
  ------------------------------------------------------------------------------
     1 OT DIIS     0.15E+00    1.9     0.00010167     -8807.9546612710 -8.81E+03
     2 OT DIIS     0.15E+00    0.4     0.00007400     -8808.0094110796 -5.47E-02
     3 OT DIIS     0.15E+00    0.4     0.00005494     -8808.0648030118 -5.54E-02
     4 OT DIIS     0.15E+00    0.4     0.00004934     -8808.1022232436 -3.74E-02
     5 OT DIIS     0.15E+00    0.6     0.00004590     -8808.1451629132 -4.29E-02
     6 OT DIIS     0.15E+00    0.6     0.00004348     -8808.1873752935 -4.22E-02
     7 OT DIIS     0.15E+00    0.6     0.00003909     -8808.2477771122 -6.04E-02
     8 OT DIIS     0.15E+00    0.6     0.00002827     -8808.3275407618 -7.98E-02
     9 OT DIIS     0.15E+00    0.6     0.00002024     -8808.3587141194 -3.12E-02
    10 OT DIIS     0.15E+00    0.6     0.00001286     -8808.3785489342 -1.98E-02
    11 OT DIIS     0.15E+00    0.6     0.00001025     -8808.3792738628 -7.25E-04
    12 OT DIIS     0.15E+00    0.6     0.00000704     -8808.3828078958 -3.53E-03

  *** SCF run converged in    12 steps ***


  Electronic density on regular grids:      -4096.0000079115       -0.0000079115
  Core density on regular grids:             4095.9999999916       -0.0000000084
  Total charge density on r-space grids:       -0.0000079199
  Total charge density g-space grids:          -0.0000079199

  Overlap energy of the core charge distribution:               0.00004378132836
  Self energy of the core charge distribution:             -22442.43995950839599
  Core Hamiltonian energy:                                   6601.18551869760904
  Hartree energy:                                            9162.93977939453180
  Exchange-correlation energy:                              -2130.06819026089761

  Total energy:                                             -8808.38280789582313

 ENERGY| Total FORCE_EVAL ( QS ) energy [a.u.]:            -8808.383484513897201

 MD| ***************************************************************************
 MD| Step number                                                               1
 MD| Time [fs]                                                          0.500000
 MD| Conserved quantity [hartree]                            -0.880615757341E+04
 MD| ---------------------------------------------------------------------------
 MD|                                          Instantaneous             Averages
 MD| CPU time per MD step [s]                     66.314950            66.314950
 MD| Energy drift per atom [K]          -0.806784324773E+02   0.000000000000E+00
 MD| Potential energy [hartree]         -0.880838348451E+04  -0.880838348451E+04
 MD| Kinetic energy [hartree]            0.222591110867E+01   0.222591110867E+01
 MD| Temperature [K]                             305.270921           305.270921
 MD| ***************************************************************************

 Number of electrons:                                                       4096
 Number of occupied orbitals:                                               2048
 Number of molecular orbitals:                                              2048

 Number of orbital functions:                                              20480
 Number of independent orbital functions:                                  20480

 Extrapolation method: PS Nth order
 Extrapolation order:  1


 SCF WAVEFUNCTION OPTIMIZATION

  ----------------------------------- OT ---------------------------------------
  Minimizer      : DIIS                : direct inversion
                                         in the iterative subspace
                                         using   7 DIIS vectors
                                         safer DIIS on
  Preconditioner : FULL_KINETIC        : inversion of T + eS
  Precond_solver : DEFAULT
  stepsize       :    0.15000000                  energy_gap     :    0.20000000
  eps_taylor     :   0.10000E-15                  max_taylor     :             4
  ----------------------------------- OT ---------------------------------------

  Step     Update method      Time    Convergence         Total energy    Change
  ------------------------------------------------------------------------------
     1 OT DIIS     0.15E+00    1.9     0.00008001     -8808.4313056843 -8.81E+03
     2 OT DIIS     0.15E+00    0.4     0.00005271     -8808.4637413287 -3.24E-02
     3 OT DIIS     0.15E+00    0.4     0.00003321     -8808.4886476966 -2.49E-02
     4 OT DIIS     0.15E+00    0.4     0.00002251     -8808.5029438748 -1.43E-02
     5 OT DIIS     0.15E+00    0.4     0.00001407     -8808.5119281478 -8.98E-03
     6 OT DIIS     0.15E+00    0.4     0.00000837     -8808.5159222868 -3.99E-03

  *** SCF run converged in     6 steps ***


  Electronic density on regular grids:      -4096.0000084067       -0.0000084067
  Core density on regular grids:             4095.9999999941       -0.0000000059
  Total charge density on r-space grids:       -0.0000084126
  Total charge density g-space grids:          -0.0000084126

  Overlap energy of the core charge distribution:               0.00003948981081
  Self energy of the core charge distribution:             -22442.43995950839599
  Core Hamiltonian energy:                                   6592.75633111027764
  Hartree energy:                                            9168.97935227758353
  Exchange-correlation energy:                              -2127.81168565608823

  Total energy:                                             -8808.51592228680965

 ENERGY| Total FORCE_EVAL ( QS ) energy [a.u.]:            -8808.517233971739188

 MD| ***************************************************************************
 MD| Step number                                                               2
 MD| Time [fs]                                                          1.000000
 MD| Conserved quantity [hartree]                            -0.880616181787E+04
 MD| ---------------------------------------------------------------------------
 MD|                                          Instantaneous             Averages
 MD| CPU time per MD step [s]                      4.888036            35.601493
 MD| Energy drift per atom [K]          -0.815510209809E+02  -0.407755104904E+02
 MD| Potential energy [hartree]         -0.880851723397E+04  -0.880845035924E+04
 MD| Kinetic energy [hartree]            0.235541609676E+01   0.229066360272E+01
 MD| Temperature [K]                             323.031787           314.151354
 MD| ***************************************************************************

 Number of electrons:                                                       4096
 Number of occupied orbitals:                                               2048
 Number of molecular orbitals:                                              2048

 Number of orbital functions:                                              20480
 Number of independent orbital functions:                                  20480

 Extrapolation method: PS Nth order
 Extrapolation order:  2


 SCF WAVEFUNCTION OPTIMIZATION

  ----------------------------------- OT ---------------------------------------
  Minimizer      : DIIS                : direct inversion
                                         in the iterative subspace
                                         using   7 DIIS vectors
                                         safer DIIS on
  Preconditioner : FULL_KINETIC        : inversion of T + eS
  Precond_solver : DEFAULT
  stepsize       :    0.15000000                  energy_gap     :    0.20000000
  eps_taylor     :   0.10000E-15                  max_taylor     :             4
  ----------------------------------- OT ---------------------------------------

  Step     Update method      Time    Convergence         Total energy    Change
  ------------------------------------------------------------------------------
     1 OT DIIS     0.15E+00    1.9     0.00008985     -8808.3717820552 -8.81E+03
     2 OT DIIS     0.15E+00    0.4     0.00007425     -8808.4174569429 -4.57E-02
     3 OT DIIS     0.15E+00    0.4     0.00005875     -8808.4861960291 -6.87E-02
     4 OT DIIS     0.15E+00    0.4     0.00004979     -8808.5436708345 -5.75E-02
     5 OT DIIS     0.15E+00    0.4     0.00004006     -8808.6033792454 -5.97E-02
     6 OT DIIS     0.15E+00    0.6     0.00002840     -8808.6545518160 -5.12E-02
     7 OT DIIS     0.15E+00    0.6     0.00001854     -8808.6820962367 -2.75E-02
     8 OT DIIS     0.15E+00    0.6     0.00001252     -8808.6920677880 -9.97E-03
     9 OT DIIS     0.15E+00    0.6     0.00000891     -8808.6959099139 -3.84E-03

  *** SCF run converged in     9 steps ***


  Electronic density on regular grids:      -4096.0000081507       -0.0000081507
  Core density on regular grids:             4095.9999999985       -0.0000000015
  Total charge density on r-space grids:       -0.0000081522
  Total charge density g-space grids:          -0.0000081522

  Overlap energy of the core charge distribution:               0.00003222729116
  Self energy of the core charge distribution:             -22442.43995950839599
  Core Hamiltonian energy:                                   6579.97332003946121
  Hartree energy:                                            9178.11111585524122
  Exchange-correlation energy:                              -2124.34041852752171

  Total energy:                                             -8808.69590991392397

 ENERGY| Total FORCE_EVAL ( QS ) energy [a.u.]:            -8808.697757913600071

 MD| ***************************************************************************
 MD| Step number                                                               3
 MD| Time [fs]                                                          1.500000
 MD| Conserved quantity [hartree]                            -0.880616479755E+04
 MD| ---------------------------------------------------------------------------
 MD|                                          Instantaneous             Averages
 MD| CPU time per MD step [s]                      6.836812            26.013266
 MD| Energy drift per atom [K]          -0.821635908696E+02  -0.545715372835E+02
 MD| Potential energy [hartree]         -0.880869775791E+04  -0.880853282547E+04
 MD| Kinetic energy [hartree]            0.253296035880E+01   0.237142918808E+01
 MD| Temperature [K]                             347.380962           325.227890
 MD| ***************************************************************************

 Number of electrons:                                                       4096
 Number of occupied orbitals:                                               2048
 Number of molecular orbitals:                                              2048

 Number of orbital functions:                                              20480
 Number of independent orbital functions:                                  20480

 Extrapolation method: PS Nth order
 Extrapolation order:  3


 SCF WAVEFUNCTION OPTIMIZATION

  ----------------------------------- OT ---------------------------------------
  Minimizer      : DIIS                : direct inversion
                                         in the iterative subspace
                                         using   7 DIIS vectors
                                         safer DIIS on
  Preconditioner : FULL_KINETIC        : inversion of T + eS
  Precond_solver : DEFAULT
  stepsize       :    0.15000000                  energy_gap     :    0.20000000
  eps_taylor     :   0.10000E-15                  max_taylor     :             4
  ----------------------------------- OT ---------------------------------------

  Step     Update method      Time    Convergence         Total energy    Change
  ------------------------------------------------------------------------------
     1 OT DIIS     0.15E+00    1.9     0.00008300     -8808.7600988519 -8.81E+03
     2 OT DIIS     0.15E+00    0.4     0.00005686     -8808.7956168068 -3.55E-02
     3 OT DIIS     0.15E+00    0.4     0.00003614     -8808.8258117911 -3.02E-02
     4 OT DIIS     0.15E+00    0.4     0.00002270     -8808.8440331981 -1.82E-02
     5 OT DIIS     0.15E+00    0.4     0.00001489     -8808.8523325026 -8.30E-03
     6 OT DIIS     0.15E+00    0.4     0.00000969     -8808.8563575049 -4.03E-03

  *** SCF run converged in     6 steps ***


  Electronic density on regular grids:      -4096.0000085824       -0.0000085824
  Core density on regular grids:             4096.0000000009        0.0000000009
  Total charge density on r-space grids:       -0.0000085816
  Total charge density g-space grids:          -0.0000085816

  Overlap energy of the core charge distribution:               0.00002346616634
  Self energy of the core charge distribution:             -22442.43995950839599
  Core Hamiltonian energy:                                   6564.27159961285906
  Hartree energy:                                            9189.38285122955858
  Exchange-correlation energy:                              -2120.07087230509433

  Total energy:                                             -8808.85635750490474

 ENERGY| Total FORCE_EVAL ( QS ) energy [a.u.]:            -8808.858123503579918

 MD| ***************************************************************************
 MD| Step number                                                               4
 MD| Time [fs]                                                          2.000000
 MD| Conserved quantity [hartree]                            -0.880616980051E+04
 MD| ---------------------------------------------------------------------------
 MD|                                          Instantaneous             Averages
 MD| CPU time per MD step [s]                      4.883936            20.730933
 MD| Energy drift per atom [K]          -0.831921097225E+02  -0.617266803932E+02
 MD| Potential energy [hartree]         -0.880885812350E+04  -0.880861414998E+04
 MD| Kinetic energy [hartree]            0.268832299820E+01   0.245065264061E+01
 MD| Temperature [K]                             368.688056           336.092931
 MD| ***************************************************************************

 Number of electrons:                                                       4096
 Number of occupied orbitals:                                               2048
 Number of molecular orbitals:                                              2048

 Number of orbital functions:                                              20480
 Number of independent orbital functions:                                  20480

 Extrapolation method: PS Nth order
 Extrapolation order:  3


 SCF WAVEFUNCTION OPTIMIZATION

  ----------------------------------- OT ---------------------------------------
  Minimizer      : DIIS                : direct inversion
                                         in the iterative subspace
                                         using   7 DIIS vectors
                                         safer DIIS on
  Preconditioner : FULL_KINETIC        : inversion of T + eS
  Precond_solver : DEFAULT
  stepsize       :    0.15000000                  energy_gap     :    0.20000000
  eps_taylor     :   0.10000E-15                  max_taylor     :             4
  ----------------------------------- OT ---------------------------------------

  Step     Update method      Time    Convergence         Total energy    Change
  ------------------------------------------------------------------------------
     1 OT DIIS     0.15E+00    1.9     0.00005398     -8808.8521923444 -8.81E+03
     2 OT DIIS     0.15E+00    0.4     0.00004360     -8808.8685924851 -1.64E-02
     3 OT DIIS     0.15E+00    0.6     0.00002876     -8808.8948189498 -2.62E-02
     4 OT DIIS     0.15E+00    0.6     0.00002104     -8808.9082103379 -1.34E-02
     5 OT DIIS     0.15E+00    0.6     0.00001317     -8808.9185183425 -1.03E-02
     6 OT DIIS     0.15E+00    0.6     0.00000843     -8808.9223710205 -3.85E-03

  *** SCF run converged in     6 steps ***


  Electronic density on regular grids:      -4096.0000071800       -0.0000071800
  Core density on regular grids:             4095.9999999999       -0.0000000001
  Total charge density on r-space grids:       -0.0000071801
  Total charge density g-space grids:          -0.0000071801

  Overlap energy of the core charge distribution:               0.00001548085794
  Self energy of the core charge distribution:             -22442.43995950839599
  Core Hamiltonian energy:                                   6547.40963025931069
  Hartree energy:                                            9201.58655786615418
  Exchange-correlation energy:                              -2115.47861511837982

  Total energy:                                             -8808.92237102045328

 ENERGY| Total FORCE_EVAL ( QS ) energy [a.u.]:            -8808.923934290964098

 MD| ***************************************************************************
 MD| Step number                                                               5
 MD| Time [fs]                                                          2.500000
 MD| Conserved quantity [hartree]                            -0.880617228827E+04
 MD| ---------------------------------------------------------------------------
 MD|                                          Instantaneous             Averages
 MD| CPU time per MD step [s]                      5.693695            17.723486
 MD| Energy drift per atom [K]          -0.837035506845E+02  -0.661220544515E+02
 MD| Potential energy [hartree]         -0.880892393429E+04  -0.880867610684E+04
 MD| Kinetic energy [hartree]            0.275164601994E+01   0.251085131647E+01
 MD| Temperature [K]                             377.372444           344.348834
 MD| ***************************************************************************

 Number of electrons:                                                       4096
 Number of occupied orbitals:                                               2048
 Number of molecular orbitals:                                              2048

 Number of orbital functions:                                              20480
 Number of independent orbital functions:                                  20480

 Extrapolation method: PS Nth order
 Extrapolation order:  3


 SCF WAVEFUNCTION OPTIMIZATION

  ----------------------------------- OT ---------------------------------------
  Minimizer      : DIIS                : direct inversion
                                         in the iterative subspace
                                         using   7 DIIS vectors
                                         safer DIIS on
  Preconditioner : FULL_KINETIC        : inversion of T + eS
  Precond_solver : DEFAULT
  stepsize       :    0.15000000                  energy_gap     :    0.20000000
  eps_taylor     :   0.10000E-15                  max_taylor     :             4
  ----------------------------------- OT ---------------------------------------

  Step     Update method      Time    Convergence         Total energy    Change
  ------------------------------------------------------------------------------
     1 OT DIIS     0.15E+00    1.9     0.00004459     -8808.8152221146 -8.81E+03
     2 OT DIIS     0.15E+00    0.4     0.00003657     -8808.8265185377 -1.13E-02
     3 OT DIIS     0.15E+00    0.4     0.00002088     -8808.8466712820 -2.02E-02
     4 OT DIIS     0.15E+00    0.4     0.00001309     -8808.8539217721 -7.25E-03
     5 OT DIIS     0.15E+00    0.4     0.00000884     -8808.8567199601 -2.80E-03

  *** SCF run converged in     5 steps ***


  Electronic density on regular grids:      -4096.0000062624       -0.0000062624
  Core density on regular grids:             4095.9999999983       -0.0000000017
  Total charge density on r-space grids:       -0.0000062642
  Total charge density g-space grids:          -0.0000062642

  Overlap energy of the core charge distribution:               0.00000971626614
  Self energy of the core charge distribution:             -22442.43995950839599
  Core Hamiltonian energy:                                   6531.17275575132044
  Hartree energy:                                            9213.44166460035376
  Exchange-correlation energy:                              -2111.03119051967860

  Total energy:                                             -8808.85671996013480

 ENERGY| Total FORCE_EVAL ( QS ) energy [a.u.]:            -8808.858095813560794

 MD| ***************************************************************************
 MD| Step number                                                               6
 MD| Time [fs]                                                          3.000000
 MD| Conserved quantity [hartree]                            -0.880617011226E+04
 MD| ---------------------------------------------------------------------------
 MD|                                          Instantaneous             Averages
 MD| CPU time per MD step [s]                      9.666124            16.380592
 MD| Energy drift per atom [K]          -0.832562020211E+02  -0.689777457131E+02
 MD| Potential energy [hartree]         -0.880885809581E+04  -0.880870643833E+04
 MD| Kinetic energy [hartree]            0.268798354860E+01   0.254037335516E+01
 MD| Temperature [K]                             368.641502           348.397612
 MD| ***************************************************************************

 Number of electrons:                                                       4096
 Number of occupied orbitals:                                               2048
 Number of molecular orbitals:                                              2048

 Number of orbital functions:                                              20480
 Number of independent orbital functions:                                  20480

 Extrapolation method: PS Nth order
 Extrapolation order:  3


 SCF WAVEFUNCTION OPTIMIZATION

  ----------------------------------- OT ---------------------------------------
  Minimizer      : DIIS                : direct inversion
                                         in the iterative subspace
                                         using   7 DIIS vectors
                                         safer DIIS on
  Preconditioner : FULL_KINETIC        : inversion of T + eS
  Precond_solver : DEFAULT
  stepsize       :    0.15000000                  energy_gap     :    0.20000000
  eps_taylor     :   0.10000E-15                  max_taylor     :             4
  ----------------------------------- OT ---------------------------------------

  Step     Update method      Time    Convergence         Total energy    Change
  ------------------------------------------------------------------------------
     1 OT DIIS     0.15E+00    1.9     0.00004551     -8808.6384776904 -8.81E+03
     2 OT DIIS     0.15E+00    0.4     0.00003729     -8808.6502444884 -1.18E-02
     3 OT DIIS     0.15E+00    0.4     0.00002023     -8808.6710751276 -2.08E-02
     4 OT DIIS     0.15E+00    0.4     0.00001308     -8808.6771445552 -6.07E-03
     5 OT DIIS     0.15E+00    0.4     0.00000755     -8808.6802139287 -3.07E-03

  *** SCF run converged in     5 steps ***


  Electronic density on regular grids:      -4096.0000050933       -0.0000050933
  Core density on regular grids:             4095.9999999989       -0.0000000011
  Total charge density on r-space grids:       -0.0000050945
  Total charge density g-space grids:          -0.0000050945

  Overlap energy of the core charge distribution:               0.00000622092511
  Self energy of the core charge distribution:             -22442.43995950839599
  Core Hamiltonian energy:                                   6517.03118234205613
  Hartree energy:                                            9223.86272598162759
  Exchange-correlation energy:                              -2107.13416896495573

  Total energy:                                             -8808.68021392874289

 ENERGY| Total FORCE_EVAL ( QS ) energy [a.u.]:            -8808.681147414716179

 MD| ***************************************************************************
 MD| Step number                                                               7
 MD| Time [fs]                                                          3.500000
 MD| Conserved quantity [hartree]                            -0.880616595638E+04
 MD| ---------------------------------------------------------------------------
 MD|                                          Instantaneous             Averages
 MD| CPU time per MD step [s]                      4.400507            14.669151
 MD| Energy drift per atom [K]          -0.824018249693E+02  -0.708954713211E+02
 MD| Potential energy [hartree]         -0.880868114741E+04  -0.880870282535E+04
 MD| Kinetic energy [hartree]            0.251519103485E+01   0.253677588083E+01
 MD| Temperature [K]                             344.944001           347.904239
 MD| ***************************************************************************

 Number of electrons:                                                       4096
 Number of occupied orbitals:                                               2048
 Number of molecular orbitals:                                              2048

 Number of orbital functions:                                              20480
 Number of independent orbital functions:                                  20480

 Extrapolation method: PS Nth order
 Extrapolation order:  3


 SCF WAVEFUNCTION OPTIMIZATION

  ----------------------------------- OT ---------------------------------------
  Minimizer      : DIIS                : direct inversion
                                         in the iterative subspace
                                         using   7 DIIS vectors
                                         safer DIIS on
  Preconditioner : FULL_KINETIC        : inversion of T + eS
  Precond_solver : DEFAULT
  stepsize       :    0.15000000                  energy_gap     :    0.20000000
  eps_taylor     :   0.10000E-15                  max_taylor     :             4
  ----------------------------------- OT ---------------------------------------

  Step     Update method      Time    Convergence         Total energy    Change
  ------------------------------------------------------------------------------
     1 OT DIIS     0.15E+00    1.9     0.00004639     -8808.4083557321 -8.81E+03
     2 OT DIIS     0.15E+00    0.4     0.00003771     -8808.4205231986 -1.22E-02
     3 OT DIIS     0.15E+00    0.4     0.00002094     -8808.4409409252 -2.04E-02
     4 OT DIIS     0.15E+00    0.4     0.00001360     -8808.4479497573 -7.01E-03
     5 OT DIIS     0.15E+00    0.4     0.00001073     -8808.4504246161 -2.47E-03
     6 OT DIIS     0.15E+00    0.4     0.00000737     -8808.4530065224 -2.58E-03

  *** SCF run converged in     6 steps ***


  Electronic density on regular grids:      -4096.0000038467       -0.0000038467
  Core density on regular grids:             4096.0000000008        0.0000000008
  Total charge density on r-space grids:       -0.0000038459
  Total charge density g-space grids:          -0.0000038459

  Overlap energy of the core charge distribution:               0.00000436187292
  Self energy of the core charge distribution:             -22442.43995950839599
  Core Hamiltonian energy:                                   6506.06509134076896
  Hartree energy:                                            9232.01158769184622
  Exchange-correlation energy:                              -2104.08973040848741

  Total energy:                                             -8808.45300652239530

 ENERGY| Total FORCE_EVAL ( QS ) energy [a.u.]:            -8808.454571074034902

 MD| ***************************************************************************
 MD| Step number                                                               8
 MD| Time [fs]                                                          4.000000
 MD| Conserved quantity [hartree]                            -0.880616114952E+04
 MD| ---------------------------------------------------------------------------
 MD|                                          Instantaneous             Averages
 MD| CPU time per MD step [s]                      4.772364            13.432053
 MD| Energy drift per atom [K]          -0.814136195113E+02  -0.722102398449E+02
 MD| Potential energy [hartree]         -0.880845457107E+04  -0.880867179356E+04
 MD| Kinetic energy [hartree]            0.229342155119E+01   0.250635658963E+01
 MD| Temperature [K]                             314.529591           343.732408
 MD| ***************************************************************************

 Number of electrons:                                                       4096
 Number of occupied orbitals:                                               2048
 Number of molecular orbitals:                                              2048

 Number of orbital functions:                                              20480
 Number of independent orbital functions:                                  20480

 Extrapolation method: PS Nth order
 Extrapolation order:  3


 SCF WAVEFUNCTION OPTIMIZATION

  ----------------------------------- OT ---------------------------------------
  Minimizer      : DIIS                : direct inversion
                                         in the iterative subspace
                                         using   7 DIIS vectors
                                         safer DIIS on
  Preconditioner : FULL_KINETIC        : inversion of T + eS
  Precond_solver : DEFAULT
  stepsize       :    0.15000000                  energy_gap     :    0.20000000
  eps_taylor     :   0.10000E-15                  max_taylor     :             4
  ----------------------------------- OT ---------------------------------------

  Step     Update method      Time    Convergence         Total energy    Change
  ------------------------------------------------------------------------------
     1 OT DIIS     0.15E+00    1.9     0.00004050     -8808.2146994191 -8.81E+03
     2 OT DIIS     0.15E+00    0.4     0.00003407     -8808.2241605340 -9.46E-03
     3 OT DIIS     0.15E+00    0.4     0.00001718     -8808.2450177615 -2.09E-02
     4 OT DIIS     0.15E+00    0.4     0.00001245     -8808.2495171670 -4.50E-03
     5 OT DIIS     0.15E+00    0.4     0.00000891     -8808.2522159788 -2.70E-03

  *** SCF run converged in     5 steps ***


  Electronic density on regular grids:      -4096.0000022243       -0.0000022243
  Core density on regular grids:             4096.0000000016        0.0000000016
  Total charge density on r-space grids:       -0.0000022226
  Total charge density g-space grids:          -0.0000022226

  Overlap energy of the core charge distribution:               0.00000353692283
  Self energy of the core charge distribution:             -22442.43995950839599
  Core Hamiltonian energy:                                   6498.75941991246509
  Hartree energy:                                            9237.49748968112544
  Exchange-correlation energy:                              -2102.06916960095396

  Total energy:                                             -8808.25221597883683

 ENERGY| Total FORCE_EVAL ( QS ) energy [a.u.]:            -8808.253873359002682

 MD| ***************************************************************************
 MD| Step number                                                               9
 MD| Time [fs]                                                          4.500000
 MD| Conserved quantity [hartree]                            -0.880615635439E+04
 MD| ---------------------------------------------------------------------------
 MD|                                          Instantaneous             Averages
 MD| CPU time per MD step [s]                      4.417293            12.430413
 MD| Energy drift per atom [K]          -0.804278247043E+02  -0.731233048293E+02
 MD| Potential energy [hartree]         -0.880825387336E+04  -0.880862535798E+04
 MD| Kinetic energy [hartree]            0.209751896722E+01   0.246093018714E+01
 MD| Temperature [K]                             287.662677           337.502438
 MD| ***************************************************************************

 Number of electrons:                                                       4096
 Number of occupied orbitals:                                               2048
 Number of molecular orbitals:                                              2048

 Number of orbital functions:                                              20480
 Number of independent orbital functions:                                  20480

 Extrapolation method: PS Nth order
 Extrapolation order:  3


 SCF WAVEFUNCTION OPTIMIZATION

  ----------------------------------- OT ---------------------------------------
  Minimizer      : DIIS                : direct inversion
                                         in the iterative subspace
                                         using   7 DIIS vectors
                                         safer DIIS on
  Preconditioner : FULL_KINETIC        : inversion of T + eS
  Precond_solver : DEFAULT
  stepsize       :    0.15000000                  energy_gap     :    0.20000000
  eps_taylor     :   0.10000E-15                  max_taylor     :             4
  ----------------------------------- OT ---------------------------------------

  Step     Update method      Time    Convergence         Total energy    Change
  ------------------------------------------------------------------------------
     1 OT DIIS     0.15E+00    1.9     0.00004011     -8808.1037305620 -8.81E+03
     2 OT DIIS     0.15E+00    0.4     0.00003342     -8808.1129269360 -9.20E-03
     3 OT DIIS     0.15E+00    0.4     0.00002048     -8808.1296916932 -1.68E-02
     4 OT DIIS     0.15E+00    0.4     0.00001263     -8808.1379698633 -8.28E-03
     5 OT DIIS     0.15E+00    0.4     0.00001017     -8808.1402109841 -2.24E-03
     6 OT DIIS     0.15E+00    0.4     0.00000715     -8808.1425466757 -2.34E-03

  *** SCF run converged in     6 steps ***


  Electronic density on regular grids:      -4096.0000006753       -0.0000006753
  Core density on regular grids:             4096.0000000007        0.0000000007
  Total charge density on r-space grids:       -0.0000006745
  Total charge density g-space grids:          -0.0000006745

  Overlap energy of the core charge distribution:               0.00000340787643
  Self energy of the core charge distribution:             -22442.43995950839599
  Core Hamiltonian energy:                                   6495.52246221998485
  Hartree energy:                                            9239.94936032413170
  Exchange-correlation energy:                              -2101.17441311925950

  Total energy:                                             -8808.14254667566092

 ENERGY| Total FORCE_EVAL ( QS ) energy [a.u.]:            -8808.143947709801068

 MD| ***************************************************************************
 MD| Step number                                                              10
 MD| Time [fs]                                                          5.000000
 MD| Conserved quantity [hartree]                            -0.880615520703E+04
 MD| ---------------------------------------------------------------------------
 MD|                                          Instantaneous             Averages
 MD| CPU time per MD step [s]                      4.691928            11.656564
 MD| Energy drift per atom [K]          -0.801919473520E+02  -0.738301690815E+02
 MD| Potential energy [hartree]         -0.880814394771E+04  -0.880857721696E+04
 MD| Kinetic energy [hartree]            0.198874067933E+01   0.241371123636E+01
 MD| Temperature [K]                             272.744360           331.026630
 MD| ***************************************************************************

 -------------------------------------------------------------------------------
 -                                                                             -
 -                                DBCSR STATISTICS                             -
 -                                                                             -
 -------------------------------------------------------------------------------
 COUNTER                                    TOTAL       BLAS       SMM       ACC
 flops     9 x    32 x    32          13287555072     100.0%      0.0%      0.0%
 flops    22 x    32 x    32          16240345088     100.0%      0.0%      0.0%
 flops   200 x    64 x    64         936168652800     100.0%      0.0%      0.0%
 flops   147 x    64 x    64        1376167919616     100.0%      0.0%      0.0%
 flops   142 x    64 x    64        1994039230464     100.0%      0.0%      0.0%
 flops   200 x    64 x   640        2130706432000     100.0%      0.0%      0.0%
 flops   182 x    64 x    64        2555740422144     100.0%      0.0%      0.0%
 flops   138 x    64 x    64        2583825481728     100.0%      0.0%      0.0%
 flops   151 x    64 x    64        2827229331456     100.0%      0.0%      0.0%
 flops   147 x    64 x   640        3132138455040     100.0%      0.0%      0.0%
 flops   142 x    64 x   640        4538404700160     100.0%      0.0%      0.0%
 flops   129 x    64 x    64        5434459029504     100.0%      0.0%      0.0%
 flops     9 x     9 x    64        5648350040064     100.0%      0.0%      0.0%
 flops   182 x    64 x   640        5816828559360     100.0%      0.0%      0.0%
 flops   138 x    64 x   640        5880749752320     100.0%      0.0%      0.0%
 flops   191 x    64 x    64        6258287443968     100.0%      0.0%      0.0%
 flops   151 x    64 x   640        6434733424640     100.0%      0.0%      0.0%
 flops     9 x    22 x    64        7855827369984     100.0%      0.0%      0.0%
 flops    22 x     9 x    64        7866447519744     100.0%      0.0%      0.0%
 flops   120 x    64 x    64        9548920258560     100.0%      0.0%      0.0%
 flops    22 x    22 x    64       11004752822272     100.0%      0.0%      0.0%
 flops   129 x    64 x   640       12368750837760     100.0%      0.0%      0.0%
 flops   191 x    64 x   640       14243772497920     100.0%      0.0%      0.0%
 flops    32 x    64 x    64       14465449852928     100.0%      0.0%      0.0%
 flops   169 x    64 x    64       19776562790400     100.0%      0.0%      0.0%
 flops   120 x    64 x   640       21733205606400     100.0%      0.0%      0.0%
 flops     9 x    32 x     9       23722505551872     100.0%      0.0%      0.0%
 flops   160 x    64 x    64       25463787356160     100.0%      0.0%      0.0%
 flops    22 x    32 x     9       33153656684544     100.0%      0.0%      0.0%
 flops     9 x    32 x    22       33153656684544     100.0%      0.0%      0.0%
 flops   169 x    64 x   640       45011173376000     100.0%      0.0%      0.0%
 flops    22 x    32 x    22       46115724689408     100.0%      0.0%      0.0%
 flops   160 x    64 x   640       57955214950400     100.0%      0.0%      0.0%
 flops    32 x    64 x   640       77824807403520     100.0%      0.0%      0.0%
 flops inhomo. stacks              56047142174720     100.0%      0.0%      0.0%
 flops total                       574.888715E+12     100.0%      0.0%      0.0%
 flops max/rank                    570.336734E+09     100.0%      0.0%      0.0%
 matmuls inhomo. stacks                  13327360     100.0%      0.0%      0.0%
 matmuls total                        12815952000     100.0%      0.0%      0.0%
 number of processed stacks             399561536     100.0%      0.0%      0.0%
 average stack size                                    32.1       0.0       0.0
 marketing flops                     1.147134E+15
 -------------------------------------------------------------------------------
 # multiplications                           2431
 max memory usage/rank             341.913600E+06
 # max total images/rank                        1
 # max 3D layers                                1
 # MPI messages exchanged               154339328
 MPI messages size (bytes):
  total size                        46.347466E+12
  min size                           0.000000E+00
  max size                           3.276800E+06
  average size                     300.295906E+03
 MPI breakdown and total messages size (bytes):
             size <=      128             1036640                        0
       128 < size <=     8192                   0                        0
      8192 < size <=    32768            71180960            2332278915072
     32768 < size <=   131072                   0                        0
    131072 < size <=  4194304            82121728           44015231621664
   4194304 < size <= 16777216                   0                        0
  16777216 < size                               0                        0
 -------------------------------------------------------------------------------
 -                                                                             -
 -                      DBCSR MESSAGE PASSING PERFORMANCE                      -
 -                                                                             -
 -------------------------------------------------------------------------------
 ROUTINE             CALLS      AVE VOLUME [Bytes]
 MP_Bcast               35                     12.
 MP_Allreduce        12999                     67.
 MP_Alltoall          9270                1277756.
 MP_ISend           311124                 145660.
 MP_IRecv           311124                 145683.
 -------------------------------------------------------------------------------

 -------------------------------------------------------------------------------
 -                                                                             -
 -                                GRID STATISTICS                              -
 -                                                                             -
 -------------------------------------------------------------------------------
 LP    KERNEL             BACKEND                              COUNT     PERCENT
 1     collocate ortho    REF                              135745301      20.25%
 1     integrate ortho    REF                              130493488      19.47%
 2     integrate ortho    REF                               88995618      13.28%
 2     collocate ortho    REF                               84560451      12.61%
 0     collocate ortho    REF                               75171698      11.21%
 0     integrate ortho    REF                               68664071      10.24%
 3     integrate ortho    REF                               26282166       3.92%
 3     collocate ortho    REF                               20755016       3.10%
 0     collocate general  REF                               17301504       2.58%
 1     integrate general  REF                               17301504       2.58%
 4     integrate ortho    REF                                3293394       0.49%
 4     collocate ortho    REF                                1638196       0.24%
 5     integrate ortho    REF                                 141925       0.02%
 -------------------------------------------------------------------------------

 MEMORY| Estimated peak process memory [MiB]                                 327

 -------------------------------------------------------------------------------
 -                                                                             -
 -                         MESSAGE PASSING PERFORMANCE                         -
 -                                                                             -
 -------------------------------------------------------------------------------

 ROUTINE             CALLS      AVE VOLUME [Bytes]
 MP_Group                4
 MP_Bcast             4017                  57868.
 MP_Allreduce        11016                   1360.
 MP_Sync              1660
 MP_Alltoall          2222                3155197.
 MP_ISendRecv       519684                   4104.
 MP_Wait            538864
 MP_comm_split          66
 MP_ISend            59202                  16547.
 MP_IRecv            59202                  16547.
 -------------------------------------------------------------------------------


 -------------------------------------------------------------------------------
 -                                                                             -
 -                           R E F E R E N C E S                               -
 -                                                                             -
 -------------------------------------------------------------------------------
 
 CP2K version 8.2, the CP2K developers group (2021).
 CP2K is freely available from https://www.cp2k.org/ .

 Kuehne,Thomas D.; Iannuzzi,Marcella; Del Ben,Mauro;
 Rybkin,Vladimir V.; Seewald,Patrick; Stein,Frederick; Laino,Teodoro;
 Khaliullin,Rustam Z.; Schuett,Ole; Schiffmann,Florian; Golze,Dorothea;
 Wilhelm,Jan; Chulkov,Sergey; Bani-Hashemian,Mohammad Hossein;
 Weber,Valery; Borstnik,Urban; Taillefumier,Mathieu;
 Jakobovits,Alice Shoshana; Lazzaro,Alfio; Pabst,Hans; Mueller,Tiziano;
 Schade,Robert; Guidon,Manuel; Andermatt,Samuel; Holmberg,Nico;
 Schenter,Gregory K.; Hehn,Anna; Bussy,Augustin; Belleflamme,Fabian;
 Tabacchi,Gloria; Gloess,Andreas; Lass,Michael; Bethune,Iain;
 Mundy,Christopher J.; Plessl,Christian; Watkins,Matt;
 VandeVondele,Joost; Krack,Matthias; Hutter,Juerg. 
 The Journal of Chemical Physics, 152 (19), (2020). 
 CP2K: An electronic structure and molecular dynamics software package -
 Quickstep: Efficient and accurate electronic structure calculations.
 https://doi.org/10.1063/5.0007045

 Schuett, Ole; Messmer, Peter; Hutter, Juerg; VandeVondele, Joost. 
 Electronic Structure Calculations on Graphics Processing Units, John
 Wiley & Sons, Ltd, 173-190 (2016). 
 GPU-Accelerated Sparse Matrix-Matrix Multiplication for
 Linear Scaling Density Functional Theory.
 https://doi.org/10.1002/9781118670712.ch8

 Borstnik, U; VandeVondele, J; Weber, V; Hutter, J. 
 PARALLEL COMPUTING, 40 (5-6), 47-58 (2014). 
 Sparse matrix multiplication: The distributed block-compressed sparse
 row library.
 https://doi.org/10.1016/j.parco.2014.03.012

 Hutter, J; Iannuzzi, M; Schiffmann, F; VandeVondele, J. 
 WIREs Comput Mol Sci., 4 (1), 15-25 (2014). 
 CP2K: atomistic simulations of condensed matter systems.
 https://doi.org/10.1002/wcms.1159

 Marek, A; Blum, V; Johanni, R; Havu, V; Lang, B; Auckenthaler, T;
 Heinecke, A; Bungartz, H; Lederer, H. 
 Journal of Physics: Condensed Matter, 26 (21), (2014). 
 The ELPA library: scalable parallel eigenvalue solutions for
 electronic structure
 theory and computational science.
 https://doi.org/10.1088/0953-8984/26/21/213201

 Krack, M. 
 THEORETICAL CHEMISTRY ACCOUNTS, 114 (1-3), 145-152 (2005). 
 Pseudopotentials for H to Kr optimized for gradient-corrected
 exchange-correlation functionals.
 https://doi.org/10.1007/s00214-005-0655-y

 VandeVondele, J; Krack, M; Mohamed, F; Parrinello, M; Chassaing, T;
 Hutter, J. COMPUTER PHYSICS COMMUNICATIONS, 167 (2), 103-128 (2005). 
 QUICKSTEP: Fast and accurate density functional calculations using a
 mixed Gaussian and plane waves approach.
 https://doi.org/10.1016/j.cpc.2004.12.014

 Frigo, M; Johnson, SG. 
 PROCEEDINGS OF THE IEEE, 93 (2), 216-231 (2005). 
 The design and implementation of FFTW3.
 https://doi.org/10.1109/JPROC.2004.840301

 VandeVondele, J; Hutter, J. 
 JOURNAL OF CHEMICAL PHYSICS, 118 (10), 4365-4369 (2003). 
 An efficient orbital transformation method for electronic structure
 calculations.
 https://doi.org/10.1063/1.1543154

 Hartwigsen, C; Goedecker, S; Hutter, J. 
 PHYSICAL REVIEW B, 58 (7), 3641-3662 (1998). 
 Relativistic separable dual-space Gaussian pseudopotentials from H to Rn.
 https://doi.org/10.1103/PhysRevB.58.3641

 Lippert, G; Hutter, J; Parrinello, M. 
 MOLECULAR PHYSICS, 92 (3), 477-487 (1997). 
 A hybrid Gaussian and plane wave density functional scheme.
 https://doi.org/10.1080/002689797170220

 Goedecker, S; Teter, M; Hutter, J. 
 PHYSICAL REVIEW B, 54 (3), 1703-1710 (1996). 
 Separable dual-space Gaussian pseudopotentials.
 https://doi.org/10.1103/PhysRevB.54.1703


 -------------------------------------------------------------------------------
 -                                                                             -
 -                                T I M I N G                                  -
 -                                                                             -
 -------------------------------------------------------------------------------
 SUBROUTINE                       CALLS  ASD         SELF TIME        TOTAL TIME
                                MAXIMUM       AVERAGE  MAXIMUM  AVERAGE  MAXIMUM
 CP2K                                 1  1.0    0.129    0.131  116.831  116.837
 qs_mol_dyn_low                       1  2.0    0.003    0.003  116.577  116.600
 qs_forces                           11  3.9    0.003    0.004  110.480  110.481
 qs_energies                         11  4.9    0.001    0.001  109.432  109.438
 scf_env_do_scf                      11  5.9    0.001    0.001   87.615   87.617
 velocity_verlet                     10  3.0    0.001    0.002   59.842   59.849
 scf_env_do_scf_inner_loop          116  6.6    0.003    0.008   58.128   58.128
 qs_scf_new_mos                     116  7.6    0.001    0.001   46.814   46.903
 qs_scf_loop_do_ot                  116  8.6    0.001    0.001   46.813   46.902
 ot_scf_mini                        116  9.6    0.003    0.004   44.697   44.805
 dbcsr_multiply_generic            2431 12.5    0.104    0.114   34.924   36.061
 multiply_cannon                   2431 13.5    0.288    0.311   27.917   29.733
 init_scf_loop                       11  6.9    0.000    0.000   29.440   29.440
 prepare_preconditioner              11  7.9    0.000    0.000   28.400   28.411
 make_preconditioner                 11  8.9    0.000    0.000   28.400   28.411
 multiply_cannon_loop              2431 14.5    0.311    0.353   26.478   28.356
 make_full_inverse_cholesky          11  9.9    0.000    0.000   25.353   25.374
 ot_mini                            116 10.6    0.001    0.002   22.496   22.599
 mp_waitall_1                   1185852 15.4   12.433   17.901   12.433   17.901
 qs_ot_get_p                        127 10.4    0.001    0.001   17.301   17.438
 multiply_cannon_multrec          77792 15.5   13.721   15.937   13.728   15.943
 qs_ot_p2m_diag                      66 11.2    0.015    0.019   14.340   14.357
 cp_dbcsr_syevd                      66 12.2    0.004    0.005   13.835   13.845
 cp_fm_diag_elpa                     66 13.2    0.000    0.001   13.544   13.549
 cp_fm_redistribute_end              66 14.2   12.898   13.393   12.927   13.397
 mp_alltoall_d11v                  2299 14.0   13.189   13.362   13.189   13.362
 qs_energies_init_hamiltonians       11  5.9    0.000    0.000   13.288   13.289
 cp_fm_diag_elpa_base                66 14.2    0.456   13.002    0.462   13.180
 dbcsr_complete_redistribute        361 12.5    0.095    0.104   12.925   13.026
 qs_ot_get_derivative               116 11.6    0.001    0.001   12.931   13.015
 qs_env_update_s_mstruct             11  6.9    0.000    0.000   12.870   12.998
 qs_create_task_list                 11  7.9    0.000    0.000   11.417   11.584
 generate_qs_task_list               11  8.9    0.022    0.043   11.417   11.584
 distribute_tasks                    11  9.9    0.006    0.008   11.392   11.558
 create_local_tasks                  11 10.9    0.001    0.003   11.114   11.244
 mp_alltoall_l11v                    11 11.9   11.110   11.240   11.110   11.240
 cp_fm_cholesky_invert               11 10.9   10.412   10.415   10.412   10.415
 copy_dbcsr_to_fm                   169 11.5    0.003    0.003    9.898    9.931
 qs_rho_update_rho                  127  7.7    0.001    0.001    9.704    9.719
 calculate_rho_elec                 127  8.7    0.011    0.012    9.703    9.718
 apply_preconditioner_dbcsr         127 12.6    0.000    0.000    8.611    9.590
 apply_single                       127 13.6    0.000    0.000    8.610    9.590
 ot_diis_step                       116 11.6    0.005    0.007    9.420    9.421
 transfer_dbcsr_to_fm                11 10.9    0.000    0.000    9.300    9.312
 multiply_cannon_metrocomm3       77792 15.5    0.129    0.141    3.597    9.301
 density_rs2pw                      127  9.7    0.004    0.005    7.435    7.762
 init_scf_run                        11  5.9    0.000    0.001    7.647    7.648
 scf_env_initial_rho_setup           11  6.9    0.000    0.000    7.647    7.647
 multiply_cannon_metrocomm1       77792 15.5    0.136    0.152    5.508    7.388
 rebuild_ks_matrix                  127  8.3    0.001    0.001    7.153    7.358
 qs_ks_build_kohn_sham_matrix       127  9.3    0.015    0.017    7.153    7.358
 multiply_cannon_metrocomm4       75361 15.5    0.134    0.148    2.936    7.146
 mp_irecv_dv                     164322 16.4    2.718    6.919    2.718    6.919
 rs_pw_transfer                    1038 11.9    0.009    0.011    6.384    6.759
 qs_ks_update_qs_env                127  7.6    0.002    0.004    6.433    6.620
 mp_sum_dm                          460  4.9    6.136    6.154    6.136    6.154
 md_write_output                     11  3.9    0.006    5.651    0.007    6.082
 update_particle_set                 20  4.0    0.000    0.000    6.071    6.077
 cp_fm_cholesky_decompose            22 10.9    5.713    5.725    5.713    5.725
 md_output                           10  3.0    0.000    0.000    0.014    5.319
 pw_transfer                       1535 11.6    0.056    0.064    4.811    4.874
 qs_ot_get_derivative_diag           62 12.2    0.001    0.002    4.759    4.832
 fft_wrap_pw1pw2                   1281 12.7    0.003    0.004    4.751    4.819
 make_m2s                          4862 13.5    0.088    0.096    4.343    4.740
 make_images                       4862 14.5    0.521    0.610    3.892    4.268
 wfi_extrapolate                     11  7.9    0.001    0.001    3.814    3.814
 sum_up_and_integrate               127 10.3    0.003    0.003    3.652    3.659
 integrate_v_rspace                 127 11.3    0.003    0.004    3.649    3.656
 fft3d_ps                           762 15.0    0.022    0.033    3.550    3.573
 copy_fm_to_dbcsr                   192 11.4    0.001    0.001    3.372    3.457
 mp_sync                           1660 16.9    2.081    3.409    2.081    3.409
 xz_to_yz                           381 14.7    0.024    0.045    3.283    3.292
 qs_ot_get_derivative_taylor         54 13.0    0.001    0.001    3.224    3.261
 mp_sum_d                          4424 12.1    2.285    3.251    2.285    3.251
 transfer_fm_to_dbcsr                11  9.9    0.000    0.000    3.046    3.112
 mp_sum_l                         11831 13.4    2.079    2.638    2.079    2.638
 calculate_dm_sparse                127  9.5    0.000    0.000    2.385    2.476
 potential_pw2rs                    127 12.3    0.003    0.003    2.415    2.430
 dbcsr_dot_sd                      1303 12.0    0.084    0.095    1.650    2.429
 mp_isend_zv                      53848 17.0    1.026    2.404    1.026    2.404
 -------------------------------------------------------------------------------

 The number of warnings for this run is : 1
 
 -------------------------------------------------------------------------------
  **** **** ******  **  PROGRAM ENDED AT                 2022-01-20 10:51:20.582
 ***** ** ***  *** **   PROGRAM RAN ON                                 nid003678
 **    ****   ******    PROGRAM RAN BY                                    hjudge
 ***** **    ** ** **   PROGRAM PROCESS ID                                174707
  **** **  *******  **  PROGRAM STOPPED IN /mnt/lustre/a2fs-work2/work/z19/z19/h
                                           judge/CUG/archer2/CPU/CP2K/H2O-512/32
                                           NODES/128CPN/4THREADS
