 DBCSR| CPU Multiplication driver                                           BLAS
 DBCSR| Multrec recursion limit                                              512
 DBCSR| Multiplication stack size                                           1000
 DBCSR| Maximum elements for images                                    UNLIMITED
 DBCSR| Multiplicative factor virtual images                                   1
 DBCSR| Use multiplication densification                                       T
 DBCSR| Multiplication size stacks                                             3
 DBCSR| Use memory pool for CPU allocation                                     F
 DBCSR| Number of 3D layers                                               SINGLE
 DBCSR| Use MPI memory allocation                                              F
 DBCSR| Use RMA algorithm                                                      F
 DBCSR| Use Communication thread                                               T
 DBCSR| Communication thread load                                             87
 DBCSR| MPI: My node id                                                        0
 DBCSR| MPI: Number of nodes                                                4096
 DBCSR| OMP: Current number of threads                                         1
 DBCSR| OMP: Max number of threads                                             1
 DBCSR| Split modifier for TAS multiplication algorithm                  1.0E+00


  **** **** ******  **  PROGRAM STARTED AT               2022-01-20 10:35:31.364
 ***** ** ***  *** **   PROGRAM STARTED ON                             nid001588
 **    ****   ******    PROGRAM STARTED BY                                hjudge
 ***** **    ** ** **   PROGRAM PROCESS ID                                128974
  **** **  *******  **  PROGRAM STARTED IN /mnt/lustre/a2fs-work2/work/z19/z19/h
                                           judge/CUG/archer2/CPU/CP2K/H2O-512/32
                                           NODES/128CPN/1THREADS

 CP2K| version string:                                          CP2K version 8.2
 CP2K| source code revision number:                                  git:310b7ab
 CP2K| cp2kflags: omp libint fftw3 libxc elpa parallel mpi3 scalapack plumed2   
 CP2K| is freely available from                            https://www.cp2k.org/
 CP2K| Program compiled at                          Thu Dec  2 10:30:45 GMT 2021
 CP2K| Program compiled on                                                  ln02
 CP2K| Program compiled for                                              ARCHER2
 CP2K| Data directory path         /work/y07/shared/apps/core/cp2k/cp2k-8.2/data
 CP2K| Input file name                                               H2O-512.inp

 GLOBAL| Force Environment number                                              1
 GLOBAL| Basis set file name                                      GTH_BASIS_SETS
 GLOBAL| Potential file name                                           POTENTIAL
 GLOBAL| MM Potential file name                                     MM_POTENTIAL
 GLOBAL| Coordinate file name                                      __STD_INPUT__
 GLOBAL| Method name                                                        CP2K
 GLOBAL| Project name                                                    H2O-512
 GLOBAL| Run type                                                             MD
 GLOBAL| FFT library                                                       FFTW3
 GLOBAL| Diagonalization library                                            ELPA
 GLOBAL| Minimum number of eigenvectors for ELPA usage                        16
 GLOBAL| Orthonormality check for eigenvectors                          DISABLED
 GLOBAL| Matrix multiplication library                                    SCALAP
 GLOBAL| All-to-all communication in single precision                          F
 GLOBAL| FFTs using library dependent lengths                                  F
 GLOBAL| Grid backend                                                       AUTO
 GLOBAL| Global print level                                                  LOW
 GLOBAL| MPI I/O enabled                                                       T
 GLOBAL| Total number of message passing processes                          4096
 GLOBAL| Number of threads for this process                                    1
 GLOBAL| This output is from process                                           0
 GLOBAL| CPU model name                          AMD EPYC 7742 64-Core Processor
 GLOBAL| CPUID                                                              1002

 MEMORY| system memory details [Kb]
 MEMORY|                        rank 0           min           max       average
 MEMORY| MemTotal            263528088     263528084     263528088     263528086
 MEMORY| MemFree             236965996     236138316     237758716     236924689
 MEMORY| Buffers                 32544         17140         37728         24589
 MEMORY| Cached                 996556        599084       1569764       1095123
 MEMORY| Slab                  1628672       1575628       1703004       1647400
 MEMORY| SReclaimable           109860         96280        118244        111347
 MEMORY| MemLikelyFree       238104956     237801956     238500628     238155750


 GENERATE|  Preliminary Number of Bonds generated:                             0
 GENERATE|  Achieved consistency in connectivity generation.

 *******************************************************************************
 *******************************************************************************
 **                                                                           **
 **     #####                         ##              ##                      **
 **    ##   ##            ##          ##              ##                      **
 **   ##     ##                       ##            ######                    **
 **   ##     ##  ##   ##  ##   #####  ##  ##   ####   ##    #####    #####    **
 **   ##     ##  ##   ##  ##  ##      ## ##   ##      ##   ##   ##  ##   ##   **
 **   ##  ## ##  ##   ##  ##  ##      ####     ###    ##   ######   ######    **
 **    ##  ###   ##   ##  ##  ##      ## ##      ##   ##   ##       ##        **
 **     #######   #####   ##   #####  ##  ##  ####    ##    #####   ##        **
 **           ##                                                    ##        **
 **                                                                           **
 **                                                ... make the atoms dance   **
 **                                                                           **
 **            Copyright (C) by CP2K developers group (2000-2021)             **
 **                      J. Chem. Phys. 152, 194103 (2020)                    **
 **                                                                           **
 *******************************************************************************


 TOTAL NUMBERS AND MAXIMUM NUMBERS

  Total number of            - Atomic kinds:                                   2
                             - Atoms:                                       1536
                             - Shell sets:                                  3072
                             - Shells:                                      9216
                             - Primitive Cartesian functions:              10752
                             - Cartesian basis functions:                  21504
                             - Spherical basis functions:                  20480

  Maximum angular momentum of- Orbital basis functions:                        2
                             - Local part of the GTH pseudopotential:          2
                             - Non-local part of the GTH pseudopotential:      0


 SCF PARAMETERS         Density guess:                                    ATOMIC
                        --------------------------------------------------------
                        max_scf:                                              50
                        max_scf_history:                                       0
                        max_diis:                                              4
                        --------------------------------------------------------
                        eps_scf:                                        1.00E-05
                        eps_scf_history:                                0.00E+00
                        eps_diis:                                       1.00E-01
                        eps_eigval:                                     1.00E-05
                        --------------------------------------------------------
                        level_shift [a.u.]:                                 0.00
                        --------------------------------------------------------
                        No outer SCF

 MD_PAR| Molecular dynamics protocol (MD input parameters)
 MD_PAR| Ensemble type                                                       NVE
 MD_PAR| Number of time steps                                                 10
 MD_PAR| Time step [fs]                                                 0.500000
 MD_PAR| Temperature [K]                                              300.000000
 MD_PAR| Temperature tolerance [K]                                      0.000000
 MD_PAR| Print MD information every                                    1 step(s)
 MD_PAR| File type   Print frequency [steps]                          File names
 MD_PAR| Coordinates          1                                H2O-512-pos-1.xyz
 MD_PAR| Velocities           1                                H2O-512-vel-1.xyz
 MD_PAR| Energies             1                                   H2O-512-1.ener
 MD_PAR| Dump                20                                H2O-512-1.restart

 ROT| Rotational analysis information
 ROT| Principal axes and moments of inertia [a.u.]
 ROT|                           1                   2                   3
 ROT| Eigenvalues      6.12011925703E+09   6.17734003456E+09   6.32378668800E+09
 ROT|      x              0.229702356692      0.883899672739      0.407379670409
 ROT|      y              0.711719446246      0.132949289019     -0.689768016354
 ROT|      z              0.663846561462     -0.448381372362      0.598549820611
 ROT| Number of rotovibrational vectors                                        6

 DOF| Calculation of degrees of freedom
 DOF| Number of atoms                                                       1536
 DOF| Number of intramolecular constraints                                     0
 DOF| Number of intermolecular constraints                                     0
 DOF| Invariants (translations + rotations)                                    3
 DOF| Degrees of freedom                                                    4605

 DOF| Restraints information
 DOF| Number of intramolecular restraints                                      0
 DOF| Number of intermolecular restraints                                      0

 MD_VEL| Velocities initialization
 MD_VEL| Initial temperature [K]                                      300.000000
 MD_VEL| COM velocity             0.0000000000    -0.0000000000     0.0000000000

 Number of electrons:                                                       4096
 Number of occupied orbitals:                                               2048
 Number of molecular orbitals:                                              2048

 Number of orbital functions:                                              20480
 Number of independent orbital functions:                                  20480

 Extrapolation method: initial_guess


 SCF WAVEFUNCTION OPTIMIZATION

  ----------------------------------- OT ---------------------------------------
  Minimizer      : DIIS                : direct inversion
                                         in the iterative subspace
                                         using   7 DIIS vectors
                                         safer DIIS on
  Preconditioner : FULL_KINETIC        : inversion of T + eS
  Precond_solver : DEFAULT
  stepsize       :    0.15000000                  energy_gap     :    0.20000000
  eps_taylor     :   0.10000E-15                  max_taylor     :             4
  ----------------------------------- OT ---------------------------------------

  Step     Update method      Time    Convergence         Total energy    Change
  ------------------------------------------------------------------------------
     1 OT DIIS     0.15E+00  112.0     0.00467324     -8480.4728425690 -8.48E+03
     2 OT DIIS     0.15E+00    1.1     0.00318266     -8587.4488310143 -1.07E+02
     3 OT DIIS     0.15E+00    1.1     0.00347210     -8644.7931966768 -5.73E+01
     4 OT DIIS     0.15E+00    1.1     0.00204380     -8678.2157923835 -3.34E+01
     5 OT DIIS     0.15E+00    1.0     0.00148292     -8717.4624183879 -3.92E+01
     6 OT DIIS     0.15E+00    1.0     0.00119954     -8738.7795043572 -2.13E+01
     7 OT DIIS     0.15E+00    1.0     0.00099038     -8755.0185947300 -1.62E+01
     8 OT DIIS     0.15E+00    1.0     0.00079894     -8767.5347825454 -1.25E+01
     9 OT DIIS     0.15E+00    1.0     0.00061581     -8780.1862563834 -1.27E+01
    10 OT DIIS     0.15E+00    1.0     0.00048147     -8788.6147471043 -8.43E+00
    11 OT DIIS     0.15E+00    1.0     0.00038278     -8794.1215228889 -5.51E+00
    12 OT DIIS     0.15E+00    1.0     0.00031960     -8797.5363589594 -3.41E+00
    13 OT DIIS     0.15E+00    1.0     0.00026435     -8799.9344030908 -2.40E+00
    14 OT DIIS     0.15E+00    1.1     0.00023004     -8801.7089305035 -1.77E+00
    15 OT DIIS     0.15E+00    1.0     0.00019592     -8803.0697888564 -1.36E+00
    16 OT DIIS     0.15E+00    1.0     0.00016642     -8804.2000843411 -1.13E+00
    17 OT DIIS     0.15E+00    1.0     0.00014164     -8805.0506655806 -8.51E-01
    18 OT DIIS     0.15E+00    1.0     0.00012638     -8805.6725421207 -6.22E-01
    19 OT DIIS     0.15E+00    1.0     0.00010717     -8806.2171485645 -5.45E-01
    20 OT DIIS     0.15E+00    1.0     0.00009868     -8806.5290018963 -3.12E-01
    21 OT DIIS     0.15E+00    1.0     0.00008484     -8806.8772741195 -3.48E-01
    22 OT DIIS     0.15E+00    1.0     0.00007717     -8807.0943334427 -2.17E-01
    23 OT DIIS     0.15E+00    1.0     0.00006815     -8807.2974129499 -2.03E-01
    24 OT DIIS     0.15E+00    1.1     0.00006019     -8807.4529078233 -1.55E-01
    25 OT DIIS     0.15E+00    1.0     0.00005010     -8807.5989834234 -1.46E-01
    26 OT DIIS     0.15E+00    1.0     0.00004000     -8807.6989662228 -1.00E-01
    27 OT DIIS     0.15E+00    1.0     0.00003462     -8807.7827122402 -8.37E-02
    28 OT DIIS     0.15E+00    1.0     0.00003071     -8807.7824932500  2.19E-04
    29 OT DIIS     0.15E+00    1.0     0.00002690     -8807.8200993195 -3.76E-02
    30 OT DIIS     0.15E+00    1.0     0.00002500     -8807.8399634016 -1.99E-02
    31 OT DIIS     0.15E+00    1.0     0.00002395     -8807.8566460922 -1.67E-02
    32 OT DIIS     0.15E+00    1.0     0.00002328     -8807.8682689643 -1.16E-02
    33 OT DIIS     0.15E+00    1.1     0.00002304     -8807.8827275965 -1.45E-02
    34 OT DIIS     0.15E+00    1.0     0.00002300     -8807.8854890297 -2.76E-03
    35 OT SD       0.15E+00    1.0     0.00002301     -8807.8907467596 -5.26E-03
    36 OT SD       0.15E+00    1.0     0.00002308     -8807.8940817096 -3.33E-03
    37 OT SD       0.15E+00    1.0     0.00002318     -8807.8974407043 -3.36E-03
    38 OT SD       0.15E+00    1.0     0.00002329     -8807.9008284718 -3.39E-03
    39 OT SD       0.15E+00    1.0     0.00002341     -8807.9042491083 -3.42E-03
    40 OT SD       0.15E+00    1.0     0.00002354     -8807.9077063659 -3.46E-03
    41 OT SD       0.15E+00    1.0     0.00002369     -8807.9112037365 -3.50E-03
    42 OT SD       0.15E+00    1.0     0.00002384     -8807.9147444866 -3.54E-03
    43 OT SD       0.15E+00    1.0     0.00002400     -8807.9183316715 -3.59E-03
    44 OT SD       0.15E+00    1.0     0.00002417     -8807.9219681410 -3.64E-03
    45 OT DIIS     0.15E+00    1.0     0.00002435     -8807.9256565391 -3.69E-03
    46 OT DIIS     0.15E+00    1.0     0.00004965     -8807.9134718244  1.22E-02
    47 OT SD       0.15E+00    1.0     0.00005093     -8807.9143208144 -8.49E-04
    48 OT SD       0.15E+00    1.1     0.00004017     -8807.9286011578 -1.43E-02
    49 OT SD       0.15E+00    1.0     0.00003560     -8807.9380904588 -9.49E-03
    50 OT SD       0.15E+00    1.0     0.00003337     -8807.9457747816 -7.68E-03

  Leaving inner SCF loop after reaching    50 steps.


  Electronic density on regular grids:      -4096.0000074727       -0.0000074727
  Core density on regular grids:             4095.9999999927       -0.0000000073
  Total charge density on r-space grids:       -0.0000074800
  Total charge density g-space grids:          -0.0000074800

  Overlap energy of the core charge distribution:               0.00004500798551
  Self energy of the core charge distribution:             -22442.43995950839599
  Core Hamiltonian energy:                                   6603.78917231443847
  Hartree energy:                                            9161.23611254479147
  Exchange-correlation energy:                              -2130.53114514037316

  Total energy:                                             -8807.94577478155406

 *** WARNING in qs_scf.F:576 :: SCF run NOT converged ***


 ENERGY| Total FORCE_EVAL ( QS ) energy [a.u.]:            -8807.952641971158300

 MD_INI| MD initialization
 MD_INI| Potential energy [hartree]                          -0.880795264197E+04
 MD_INI| Kinetic energy [hartree]                             0.218747769838E+01
 MD_INI| Temperature [K]                                              300.000000
 MD_INI| Cell volume [bohr^3]                                 1.037187315243E+05
 MD_INI| Cell volume [ang^3]                                  1.536953010365E+04
 MD_INI| Cell lengths [bohr]      4.69842608E+01  4.69842608E+01  4.69842608E+01
 MD_INI| Cell lengths [ang]       2.48630000E+01  2.48630000E+01  2.48630000E+01
 MD_INI| Cell angles [deg]        9.00000000E+01  9.00000000E+01  9.00000000E+01

 Number of electrons:                                                       4096
 Number of occupied orbitals:                                               2048
 Number of molecular orbitals:                                              2048

 Number of orbital functions:                                              20480
 Number of independent orbital functions:                                  20480

 Extrapolation method: PS Nth order
 Extrapolation order:  0


 SCF WAVEFUNCTION OPTIMIZATION

  ----------------------------------- OT ---------------------------------------
  Minimizer      : DIIS                : direct inversion
                                         in the iterative subspace
                                         using   7 DIIS vectors
                                         safer DIIS on
  Preconditioner : FULL_KINETIC        : inversion of T + eS
  Precond_solver : DEFAULT
  stepsize       :    0.15000000                  energy_gap     :    0.20000000
  eps_taylor     :   0.10000E-15                  max_taylor     :             4
  ----------------------------------- OT ---------------------------------------

  Step     Update method      Time    Convergence         Total energy    Change
  ------------------------------------------------------------------------------
     1 OT DIIS     0.15E+00    3.5     0.00010167     -8807.9546902685 -8.81E+03
     2 OT DIIS     0.15E+00    0.6     0.00007400     -8808.0094402786 -5.48E-02
     3 OT DIIS     0.15E+00    0.6     0.00005494     -8808.0648338426 -5.54E-02
     4 OT DIIS     0.15E+00    0.6     0.00004934     -8808.1022565059 -3.74E-02
     5 OT DIIS     0.15E+00    1.0     0.00004591     -8808.1452012968 -4.29E-02
     6 OT DIIS     0.15E+00    1.0     0.00004348     -8808.1874244830 -4.22E-02
     7 OT DIIS     0.15E+00    1.0     0.00003908     -8808.2478452836 -6.04E-02
     8 OT DIIS     0.15E+00    1.1     0.00002826     -8808.3275871294 -7.97E-02
     9 OT DIIS     0.15E+00    1.0     0.00002024     -8808.3587322382 -3.11E-02
    10 OT DIIS     0.15E+00    1.0     0.00001286     -8808.3785534071 -1.98E-02
    11 OT DIIS     0.15E+00    1.0     0.00001025     -8808.3792775193 -7.24E-04
    12 OT DIIS     0.15E+00    1.0     0.00000704     -8808.3828085807 -3.53E-03

  *** SCF run converged in    12 steps ***


  Electronic density on regular grids:      -4096.0000079115       -0.0000079115
  Core density on regular grids:             4095.9999999916       -0.0000000084
  Total charge density on r-space grids:       -0.0000079199
  Total charge density g-space grids:          -0.0000079199

  Overlap energy of the core charge distribution:               0.00004378133117
  Self energy of the core charge distribution:             -22442.43995950839599
  Core Hamiltonian energy:                                   6601.18559814522450
  Hartree energy:                                            9162.93971248636444
  Exchange-correlation energy:                              -2130.06820348526435

  Total energy:                                             -8808.38280858073995

 ENERGY| Total FORCE_EVAL ( QS ) energy [a.u.]:            -8808.383485338759783

 MD| ***************************************************************************
 MD| Step number                                                               1
 MD| Time [fs]                                                          0.500000
 MD| Conserved quantity [hartree]                            -0.880615757407E+04
 MD| ---------------------------------------------------------------------------
 MD|                                          Instantaneous             Averages
 MD| CPU time per MD step [s]                    262.897809           262.897809
 MD| Energy drift per atom [K]          -0.806725684748E+02   0.000000000000E+00
 MD| Potential energy [hartree]         -0.880838348534E+04  -0.880838348534E+04
 MD| Kinetic energy [hartree]            0.222591126994E+01   0.222591126994E+01
 MD| Temperature [K]                             305.270944           305.270944
 MD| ***************************************************************************

 Number of electrons:                                                       4096
 Number of occupied orbitals:                                               2048
 Number of molecular orbitals:                                              2048

 Number of orbital functions:                                              20480
 Number of independent orbital functions:                                  20480

 Extrapolation method: PS Nth order
 Extrapolation order:  1


 SCF WAVEFUNCTION OPTIMIZATION

  ----------------------------------- OT ---------------------------------------
  Minimizer      : DIIS                : direct inversion
                                         in the iterative subspace
                                         using   7 DIIS vectors
                                         safer DIIS on
  Preconditioner : FULL_KINETIC        : inversion of T + eS
  Precond_solver : DEFAULT
  stepsize       :    0.15000000                  energy_gap     :    0.20000000
  eps_taylor     :   0.10000E-15                  max_taylor     :             4
  ----------------------------------- OT ---------------------------------------

  Step     Update method      Time    Convergence         Total energy    Change
  ------------------------------------------------------------------------------
     1 OT DIIS     0.15E+00    3.4     0.00008001     -8808.4313028088 -8.81E+03
     2 OT DIIS     0.15E+00    0.6     0.00005271     -8808.4637389487 -3.24E-02
     3 OT DIIS     0.15E+00    0.6     0.00003321     -8808.4886460901 -2.49E-02
     4 OT DIIS     0.15E+00    0.6     0.00002251     -8808.5029427792 -1.43E-02
     5 OT DIIS     0.15E+00    0.6     0.00001407     -8808.5119275837 -8.98E-03
     6 OT DIIS     0.15E+00    0.6     0.00000837     -8808.5159220019 -3.99E-03

  *** SCF run converged in     6 steps ***


  Electronic density on regular grids:      -4096.0000084069       -0.0000084069
  Core density on regular grids:             4095.9999999941       -0.0000000059
  Total charge density on r-space grids:       -0.0000084128
  Total charge density g-space grids:          -0.0000084128

  Overlap energy of the core charge distribution:               0.00003948981755
  Self energy of the core charge distribution:             -22442.43995950839599
  Core Hamiltonian energy:                                   6592.75632805959413
  Hartree energy:                                            9168.97935589134977
  Exchange-correlation energy:                              -2127.81168593428993

  Total energy:                                             -8808.51592200192681

 ENERGY| Total FORCE_EVAL ( QS ) energy [a.u.]:            -8808.517233737435163

 MD| ***************************************************************************
 MD| Step number                                                               2
 MD| Time [fs]                                                          1.000000
 MD| Conserved quantity [hartree]                            -0.880616181732E+04
 MD| ---------------------------------------------------------------------------
 MD|                                          Instantaneous             Averages
 MD| CPU time per MD step [s]                     15.749443           139.323626
 MD| Energy drift per atom [K]          -0.815449071838E+02  -0.407724535919E+02
 MD| Potential energy [hartree]         -0.880851723374E+04  -0.880845035954E+04
 MD| Kinetic energy [hartree]            0.235541641392E+01   0.229066384193E+01
 MD| Temperature [K]                             323.031830           314.151387
 MD| ***************************************************************************

 Number of electrons:                                                       4096
 Number of occupied orbitals:                                               2048
 Number of molecular orbitals:                                              2048

 Number of orbital functions:                                              20480
 Number of independent orbital functions:                                  20480

 Extrapolation method: PS Nth order
 Extrapolation order:  2


 SCF WAVEFUNCTION OPTIMIZATION

  ----------------------------------- OT ---------------------------------------
  Minimizer      : DIIS                : direct inversion
                                         in the iterative subspace
                                         using   7 DIIS vectors
                                         safer DIIS on
  Preconditioner : FULL_KINETIC        : inversion of T + eS
  Precond_solver : DEFAULT
  stepsize       :    0.15000000                  energy_gap     :    0.20000000
  eps_taylor     :   0.10000E-15                  max_taylor     :             4
  ----------------------------------- OT ---------------------------------------

  Step     Update method      Time    Convergence         Total energy    Change
  ------------------------------------------------------------------------------
     1 OT DIIS     0.15E+00    3.4     0.00008985     -8808.3717947239 -8.81E+03
     2 OT DIIS     0.15E+00    0.6     0.00007425     -8808.4174630256 -4.57E-02
     3 OT DIIS     0.15E+00    0.6     0.00005875     -8808.4861931726 -6.87E-02
     4 OT DIIS     0.15E+00    0.6     0.00004979     -8808.5436649149 -5.75E-02
     5 OT DIIS     0.15E+00    0.6     0.00004006     -8808.6033772387 -5.97E-02
     6 OT DIIS     0.15E+00    1.0     0.00002840     -8808.6545511033 -5.12E-02
     7 OT DIIS     0.15E+00    1.0     0.00001854     -8808.6820953910 -2.75E-02
     8 OT DIIS     0.15E+00    1.0     0.00001252     -8808.6920672464 -9.97E-03
     9 OT DIIS     0.15E+00    1.0     0.00000891     -8808.6959096195 -3.84E-03

  *** SCF run converged in     9 steps ***


  Electronic density on regular grids:      -4096.0000081507       -0.0000081507
  Core density on regular grids:             4095.9999999985       -0.0000000015
  Total charge density on r-space grids:       -0.0000081522
  Total charge density g-space grids:          -0.0000081522

  Overlap energy of the core charge distribution:               0.00003222730005
  Self energy of the core charge distribution:             -22442.43995950839599
  Core Hamiltonian energy:                                   6579.97330906527441
  Hartree energy:                                            9178.11112676488119
  Exchange-correlation energy:                              -2124.34041816858598

  Total energy:                                             -8808.69590961952599

 ENERGY| Total FORCE_EVAL ( QS ) energy [a.u.]:            -8808.697757721700327

 MD| ***************************************************************************
 MD| Step number                                                               3
 MD| Time [fs]                                                          1.500000
 MD| Conserved quantity [hartree]                            -0.880616479703E+04
 MD| ---------------------------------------------------------------------------
 MD|                                          Instantaneous             Averages
 MD| CPU time per MD step [s]                     18.867845            99.171699
 MD| Energy drift per atom [K]          -0.821574820005E+02  -0.545674630614E+02
 MD| Potential energy [hartree]         -0.880869775772E+04  -0.880853282560E+04
 MD| Kinetic energy [hartree]            0.253296069439E+01   0.237142945942E+01
 MD| Temperature [K]                             347.381008           325.227927
 MD| ***************************************************************************

 Number of electrons:                                                       4096
 Number of occupied orbitals:                                               2048
 Number of molecular orbitals:                                              2048

 Number of orbital functions:                                              20480
 Number of independent orbital functions:                                  20480

 Extrapolation method: PS Nth order
 Extrapolation order:  3


 SCF WAVEFUNCTION OPTIMIZATION

  ----------------------------------- OT ---------------------------------------
  Minimizer      : DIIS                : direct inversion
                                         in the iterative subspace
                                         using   7 DIIS vectors
                                         safer DIIS on
  Preconditioner : FULL_KINETIC        : inversion of T + eS
  Precond_solver : DEFAULT
  stepsize       :    0.15000000                  energy_gap     :    0.20000000
  eps_taylor     :   0.10000E-15                  max_taylor     :             4
  ----------------------------------- OT ---------------------------------------

  Step     Update method      Time    Convergence         Total energy    Change
  ------------------------------------------------------------------------------
     1 OT DIIS     0.15E+00    3.4     0.00008300     -8808.7600965724 -8.81E+03
     2 OT DIIS     0.15E+00    0.6     0.00005686     -8808.7956150510 -3.55E-02
     3 OT DIIS     0.15E+00    0.6     0.00003614     -8808.8258105385 -3.02E-02
     4 OT DIIS     0.15E+00    0.6     0.00002270     -8808.8440324692 -1.82E-02
     5 OT DIIS     0.15E+00    0.6     0.00001489     -8808.8523322690 -8.30E-03
     6 OT DIIS     0.15E+00    0.7     0.00000969     -8808.8563573926 -4.03E-03

  *** SCF run converged in     6 steps ***


  Electronic density on regular grids:      -4096.0000085826       -0.0000085826
  Core density on regular grids:             4096.0000000009        0.0000000009
  Total charge density on r-space grids:       -0.0000085817
  Total charge density g-space grids:          -0.0000085817

  Overlap energy of the core charge distribution:               0.00002346617442
  Self energy of the core charge distribution:             -22442.43995950839599
  Core Hamiltonian energy:                                   6564.27160690935125
  Hartree energy:                                            9189.38284594921060
  Exchange-correlation energy:                              -2120.07087420895004

  Total energy:                                             -8808.85635739260943

 ENERGY| Total FORCE_EVAL ( QS ) energy [a.u.]:            -8808.858123306008565

 MD| ***************************************************************************
 MD| Step number                                                               4
 MD| Time [fs]                                                          2.000000
 MD| Conserved quantity [hartree]                            -0.880616979988E+04
 MD| ---------------------------------------------------------------------------
 MD|                                          Instantaneous             Averages
 MD| CPU time per MD step [s]                     15.383802            78.224724
 MD| Energy drift per atom [K]          -0.831859811748E+02  -0.617220925898E+02
 MD| Potential energy [hartree]         -0.880885812331E+04  -0.880861415003E+04
 MD| Kinetic energy [hartree]            0.268832342383E+01   0.245065295052E+01
 MD| Temperature [K]                             368.688114           336.092974
 MD| ***************************************************************************

 Number of electrons:                                                       4096
 Number of occupied orbitals:                                               2048
 Number of molecular orbitals:                                              2048

 Number of orbital functions:                                              20480
 Number of independent orbital functions:                                  20480

 Extrapolation method: PS Nth order
 Extrapolation order:  3


 SCF WAVEFUNCTION OPTIMIZATION

  ----------------------------------- OT ---------------------------------------
  Minimizer      : DIIS                : direct inversion
                                         in the iterative subspace
                                         using   7 DIIS vectors
                                         safer DIIS on
  Preconditioner : FULL_KINETIC        : inversion of T + eS
  Precond_solver : DEFAULT
  stepsize       :    0.15000000                  energy_gap     :    0.20000000
  eps_taylor     :   0.10000E-15                  max_taylor     :             4
  ----------------------------------- OT ---------------------------------------

  Step     Update method      Time    Convergence         Total energy    Change
  ------------------------------------------------------------------------------
     1 OT DIIS     0.15E+00    3.4     0.00005398     -8808.8521926864 -8.81E+03
     2 OT DIIS     0.15E+00    0.6     0.00004360     -8808.8685929115 -1.64E-02
     3 OT DIIS     0.15E+00    1.0     0.00002876     -8808.8948180998 -2.62E-02
     4 OT DIIS     0.15E+00    1.0     0.00002104     -8808.9082089857 -1.34E-02
     5 OT DIIS     0.15E+00    1.0     0.00001317     -8808.9185174460 -1.03E-02
     6 OT DIIS     0.15E+00    1.0     0.00000843     -8808.9223706439 -3.85E-03

  *** SCF run converged in     6 steps ***


  Electronic density on regular grids:      -4096.0000071800       -0.0000071800
  Core density on regular grids:             4095.9999999999       -0.0000000001
  Total charge density on r-space grids:       -0.0000071801
  Total charge density g-space grids:          -0.0000071801

  Overlap energy of the core charge distribution:               0.00001548086351
  Self energy of the core charge distribution:             -22442.43995950839599
  Core Hamiltonian energy:                                   6547.40963400374039
  Hartree energy:                                            9201.58655584336884
  Exchange-correlation energy:                              -2115.47861646348156

  Total energy:                                             -8808.92237064390793

 ENERGY| Total FORCE_EVAL ( QS ) energy [a.u.]:            -8808.923934005562842

 MD| ***************************************************************************
 MD| Step number                                                               5
 MD| Time [fs]                                                          2.500000
 MD| Conserved quantity [hartree]                            -0.880617228748E+04
 MD| ---------------------------------------------------------------------------
 MD|                                          Instantaneous             Averages
 MD| CPU time per MD step [s]                     21.800494            66.939878
 MD| Energy drift per atom [K]          -0.836973884569E+02  -0.661171517632E+02
 MD| Potential energy [hartree]         -0.880892393401E+04  -0.880867610682E+04
 MD| Kinetic energy [hartree]            0.275164652158E+01   0.251085166473E+01
 MD| Temperature [K]                             377.372513           344.348882
 MD| ***************************************************************************

 Number of electrons:                                                       4096
 Number of occupied orbitals:                                               2048
 Number of molecular orbitals:                                              2048

 Number of orbital functions:                                              20480
 Number of independent orbital functions:                                  20480

 Extrapolation method: PS Nth order
 Extrapolation order:  3


 SCF WAVEFUNCTION OPTIMIZATION

  ----------------------------------- OT ---------------------------------------
  Minimizer      : DIIS                : direct inversion
                                         in the iterative subspace
                                         using   7 DIIS vectors
                                         safer DIIS on
  Preconditioner : FULL_KINETIC        : inversion of T + eS
  Precond_solver : DEFAULT
  stepsize       :    0.15000000                  energy_gap     :    0.20000000
  eps_taylor     :   0.10000E-15                  max_taylor     :             4
  ----------------------------------- OT ---------------------------------------

  Step     Update method      Time    Convergence         Total energy    Change
  ------------------------------------------------------------------------------
     1 OT DIIS     0.15E+00    3.4     0.00004459     -8808.8152220991 -8.81E+03
     2 OT DIIS     0.15E+00    0.6     0.00003657     -8808.8265187569 -1.13E-02
     3 OT DIIS     0.15E+00    0.6     0.00002088     -8808.8466718787 -2.02E-02
     4 OT DIIS     0.15E+00    0.6     0.00001309     -8808.8539219326 -7.25E-03
     5 OT DIIS     0.15E+00    0.6     0.00000884     -8808.8567199175 -2.80E-03

  *** SCF run converged in     5 steps ***


  Electronic density on regular grids:      -4096.0000062624       -0.0000062624
  Core density on regular grids:             4095.9999999983       -0.0000000017
  Total charge density on r-space grids:       -0.0000062641
  Total charge density g-space grids:          -0.0000062641

  Overlap energy of the core charge distribution:               0.00000971626918
  Self energy of the core charge distribution:             -22442.43995950839599
  Core Hamiltonian energy:                                   6531.17276628729633
  Hartree energy:                                            9213.44165608947515
  Exchange-correlation energy:                              -2111.03119250210693

  Total energy:                                             -8808.85671991746131

 ENERGY| Total FORCE_EVAL ( QS ) energy [a.u.]:            -8808.858095676814628

 MD| ***************************************************************************
 MD| Step number                                                               6
 MD| Time [fs]                                                          3.000000
 MD| Conserved quantity [hartree]                            -0.880617011159E+04
 MD| ---------------------------------------------------------------------------
 MD|                                          Instantaneous             Averages
 MD| CPU time per MD step [s]                     13.888058            58.097908
 MD| Energy drift per atom [K]          -0.832500628255E+02  -0.689726369403E+02
 MD| Potential energy [hartree]         -0.880885809568E+04  -0.880870643830E+04
 MD| Kinetic energy [hartree]            0.268798408686E+01   0.254037373509E+01
 MD| Temperature [K]                             368.641576           348.397664
 MD| ***************************************************************************

 Number of electrons:                                                       4096
 Number of occupied orbitals:                                               2048
 Number of molecular orbitals:                                              2048

 Number of orbital functions:                                              20480
 Number of independent orbital functions:                                  20480

 Extrapolation method: PS Nth order
 Extrapolation order:  3


 SCF WAVEFUNCTION OPTIMIZATION

  ----------------------------------- OT ---------------------------------------
  Minimizer      : DIIS                : direct inversion
                                         in the iterative subspace
                                         using   7 DIIS vectors
                                         safer DIIS on
  Preconditioner : FULL_KINETIC        : inversion of T + eS
  Precond_solver : DEFAULT
  stepsize       :    0.15000000                  energy_gap     :    0.20000000
  eps_taylor     :   0.10000E-15                  max_taylor     :             4
  ----------------------------------- OT ---------------------------------------

  Step     Update method      Time    Convergence         Total energy    Change
  ------------------------------------------------------------------------------
     1 OT DIIS     0.15E+00    3.4     0.00004551     -8808.6384780388 -8.81E+03
     2 OT DIIS     0.15E+00    0.7     0.00003729     -8808.6502448390 -1.18E-02
     3 OT DIIS     0.15E+00    0.6     0.00002023     -8808.6710749865 -2.08E-02
     4 OT DIIS     0.15E+00    0.6     0.00001308     -8808.6771443493 -6.07E-03
     5 OT DIIS     0.15E+00    0.6     0.00000755     -8808.6802138320 -3.07E-03

  *** SCF run converged in     5 steps ***


  Electronic density on regular grids:      -4096.0000050933       -0.0000050933
  Core density on regular grids:             4095.9999999989       -0.0000000011
  Total charge density on r-space grids:       -0.0000050945
  Total charge density g-space grids:          -0.0000050945

  Overlap energy of the core charge distribution:               0.00000622092641
  Self energy of the core charge distribution:             -22442.43995950839599
  Core Hamiltonian energy:                                   6517.03118175138661
  Hartree energy:                                            9223.86272705488591
  Exchange-correlation energy:                              -2107.13416935078067

  Total energy:                                             -8808.68021383197811

 ENERGY| Total FORCE_EVAL ( QS ) energy [a.u.]:            -8808.681147264549509

 MD| ***************************************************************************
 MD| Step number                                                               7
 MD| Time [fs]                                                          3.500000
 MD| Conserved quantity [hartree]                            -0.880616595568E+04
 MD| ---------------------------------------------------------------------------
 MD|                                          Instantaneous             Averages
 MD| CPU time per MD step [s]                     13.859210            51.778094
 MD| Energy drift per atom [K]          -0.823956800496E+02  -0.708902145273E+02
 MD| Potential energy [hartree]         -0.880868114726E+04  -0.880870282529E+04
 MD| Kinetic energy [hartree]            0.251519158753E+01   0.253677628543E+01
 MD| Temperature [K]                             344.944077           347.904295
 MD| ***************************************************************************

 Number of electrons:                                                       4096
 Number of occupied orbitals:                                               2048
 Number of molecular orbitals:                                              2048

 Number of orbital functions:                                              20480
 Number of independent orbital functions:                                  20480

 Extrapolation method: PS Nth order
 Extrapolation order:  3


 SCF WAVEFUNCTION OPTIMIZATION

  ----------------------------------- OT ---------------------------------------
  Minimizer      : DIIS                : direct inversion
                                         in the iterative subspace
                                         using   7 DIIS vectors
                                         safer DIIS on
  Preconditioner : FULL_KINETIC        : inversion of T + eS
  Precond_solver : DEFAULT
  stepsize       :    0.15000000                  energy_gap     :    0.20000000
  eps_taylor     :   0.10000E-15                  max_taylor     :             4
  ----------------------------------- OT ---------------------------------------

  Step     Update method      Time    Convergence         Total energy    Change
  ------------------------------------------------------------------------------
     1 OT DIIS     0.15E+00    3.5     0.00004639     -8808.4083577300 -8.81E+03
     2 OT DIIS     0.15E+00    0.7     0.00003771     -8808.4205245367 -1.22E-02
     3 OT DIIS     0.15E+00    0.6     0.00002094     -8808.4409409788 -2.04E-02
     4 OT DIIS     0.15E+00    0.6     0.00001360     -8808.4479497262 -7.01E-03
     5 OT DIIS     0.15E+00    0.7     0.00001073     -8808.4504246083 -2.47E-03
     6 OT DIIS     0.15E+00    0.6     0.00000737     -8808.4530064614 -2.58E-03

  *** SCF run converged in     6 steps ***


  Electronic density on regular grids:      -4096.0000038467       -0.0000038467
  Core density on regular grids:             4096.0000000008        0.0000000008
  Total charge density on r-space grids:       -0.0000038458
  Total charge density g-space grids:          -0.0000038458

  Overlap energy of the core charge distribution:               0.00000436187326
  Self energy of the core charge distribution:             -22442.43995950839599
  Core Hamiltonian energy:                                   6506.06509053567970
  Hartree energy:                                            9232.01158836581089
  Exchange-correlation energy:                              -2104.08973021635666

  Total energy:                                             -8808.45300646138639

 ENERGY| Total FORCE_EVAL ( QS ) energy [a.u.]:            -8808.454570944437364

 MD| ***************************************************************************
 MD| Step number                                                               8
 MD| Time [fs]                                                          4.000000
 MD| Conserved quantity [hartree]                            -0.880616114886E+04
 MD| ---------------------------------------------------------------------------
 MD|                                          Instantaneous             Averages
 MD| CPU time per MD step [s]                     14.300423            47.093385
 MD| Energy drift per atom [K]          -0.814074822319E+02  -0.722048729904E+02
 MD| Potential energy [hartree]         -0.880845457094E+04  -0.880867179350E+04
 MD| Kinetic energy [hartree]            0.229342208727E+01   0.250635701066E+01
 MD| Temperature [K]                             314.529664           343.732466
 MD| ***************************************************************************

 Number of electrons:                                                       4096
 Number of occupied orbitals:                                               2048
 Number of molecular orbitals:                                              2048

 Number of orbital functions:                                              20480
 Number of independent orbital functions:                                  20480

 Extrapolation method: PS Nth order
 Extrapolation order:  3


 SCF WAVEFUNCTION OPTIMIZATION

  ----------------------------------- OT ---------------------------------------
  Minimizer      : DIIS                : direct inversion
                                         in the iterative subspace
                                         using   7 DIIS vectors
                                         safer DIIS on
  Preconditioner : FULL_KINETIC        : inversion of T + eS
  Precond_solver : DEFAULT
  stepsize       :    0.15000000                  energy_gap     :    0.20000000
  eps_taylor     :   0.10000E-15                  max_taylor     :             4
  ----------------------------------- OT ---------------------------------------

  Step     Update method      Time    Convergence         Total energy    Change
  ------------------------------------------------------------------------------
     1 OT DIIS     0.15E+00    3.4     0.00004050     -8808.2147007641 -8.81E+03
     2 OT DIIS     0.15E+00    0.6     0.00003407     -8808.2241615938 -9.46E-03
     3 OT DIIS     0.15E+00    0.7     0.00001718     -8808.2450175566 -2.09E-02
     4 OT DIIS     0.15E+00    0.7     0.00001245     -8808.2495170690 -4.50E-03
     5 OT DIIS     0.15E+00    0.6     0.00000891     -8808.2522158423 -2.70E-03

  *** SCF run converged in     5 steps ***


  Electronic density on regular grids:      -4096.0000022243       -0.0000022243
  Core density on regular grids:             4096.0000000016        0.0000000016
  Total charge density on r-space grids:       -0.0000022226
  Total charge density g-space grids:          -0.0000022226

  Overlap energy of the core charge distribution:               0.00000353692263
  Self energy of the core charge distribution:             -22442.43995950839599
  Core Hamiltonian energy:                                   6498.75941367968335
  Hartree energy:                                            9237.49749480053833
  Exchange-correlation energy:                              -2102.06916835101219

  Total energy:                                             -8808.25221584226347

 ENERGY| Total FORCE_EVAL ( QS ) energy [a.u.]:            -8808.253873155825204

 MD| ***************************************************************************
 MD| Step number                                                               9
 MD| Time [fs]                                                          4.500000
 MD| Conserved quantity [hartree]                            -0.880615635370E+04
 MD| ---------------------------------------------------------------------------
 MD|                                          Instantaneous             Averages
 MD| CPU time per MD step [s]                     13.387919            43.348333
 MD| Energy drift per atom [K]          -0.804216818317E+02  -0.731178517505E+02
 MD| Potential energy [hartree]         -0.880825387316E+04  -0.880862535791E+04
 MD| Kinetic energy [hartree]            0.209751945693E+01   0.246093061581E+01
 MD| Temperature [K]                             287.662744           337.502497
 MD| ***************************************************************************

 Number of electrons:                                                       4096
 Number of occupied orbitals:                                               2048
 Number of molecular orbitals:                                              2048

 Number of orbital functions:                                              20480
 Number of independent orbital functions:                                  20480

 Extrapolation method: PS Nth order
 Extrapolation order:  3


 SCF WAVEFUNCTION OPTIMIZATION

  ----------------------------------- OT ---------------------------------------
  Minimizer      : DIIS                : direct inversion
                                         in the iterative subspace
                                         using   7 DIIS vectors
                                         safer DIIS on
  Preconditioner : FULL_KINETIC        : inversion of T + eS
  Precond_solver : DEFAULT
  stepsize       :    0.15000000                  energy_gap     :    0.20000000
  eps_taylor     :   0.10000E-15                  max_taylor     :             4
  ----------------------------------- OT ---------------------------------------

  Step     Update method      Time    Convergence         Total energy    Change
  ------------------------------------------------------------------------------
     1 OT DIIS     0.15E+00    3.4     0.00004011     -8808.1037316249 -8.81E+03
     2 OT DIIS     0.15E+00    0.7     0.00003341     -8808.1129275756 -9.20E-03
     3 OT DIIS     0.15E+00    0.6     0.00002048     -8808.1296916160 -1.68E-02
     4 OT DIIS     0.15E+00    0.6     0.00001263     -8808.1379697487 -8.28E-03
     5 OT DIIS     0.15E+00    0.6     0.00001017     -8808.1402107386 -2.24E-03
     6 OT DIIS     0.15E+00    0.6     0.00000715     -8808.1425464734 -2.34E-03

  *** SCF run converged in     6 steps ***


  Electronic density on regular grids:      -4096.0000006753       -0.0000006753
  Core density on regular grids:             4096.0000000008        0.0000000008
  Total charge density on r-space grids:       -0.0000006745
  Total charge density g-space grids:          -0.0000006745

  Overlap energy of the core charge distribution:               0.00000340787586
  Self energy of the core charge distribution:             -22442.43995950839599
  Core Hamiltonian energy:                                   6495.52245829166895
  Hartree energy:                                            9239.94936330070050
  Exchange-correlation energy:                              -2101.17441196525897

  Total energy:                                             -8808.14254647340931

 ENERGY| Total FORCE_EVAL ( QS ) energy [a.u.]:            -8808.143947492106236

 MD| ***************************************************************************
 MD| Step number                                                              10
 MD| Time [fs]                                                          5.000000
 MD| Conserved quantity [hartree]                            -0.880615520640E+04
 MD| ---------------------------------------------------------------------------
 MD|                                          Instantaneous             Averages
 MD| CPU time per MD step [s]                     13.521994            40.365699
 MD| Energy drift per atom [K]          -0.801858168568E+02  -0.738246482612E+02
 MD| Potential energy [hartree]         -0.880814394749E+04  -0.880857721686E+04
 MD| Kinetic energy [hartree]            0.198874109431E+01   0.241371166366E+01
 MD| Temperature [K]                             272.744416           331.026689
 MD| ***************************************************************************

 -------------------------------------------------------------------------------
 -                                                                             -
 -                                DBCSR STATISTICS                             -
 -                                                                             -
 -------------------------------------------------------------------------------
 COUNTER                                    TOTAL       BLAS       SMM       ACC
 flops     9 x    32 x    32          13287555072     100.0%      0.0%      0.0%
 flops    22 x    32 x    32          16240345088     100.0%      0.0%      0.0%
 flops     9 x     9 x    32        5648350040064     100.0%      0.0%      0.0%
 flops     9 x    22 x    32        7855827369984     100.0%      0.0%      0.0%
 flops    22 x     9 x    32        7866447519744     100.0%      0.0%      0.0%
 flops    22 x    22 x    32       11004752822272     100.0%      0.0%      0.0%
 flops    32 x    32 x    32       14465449852928     100.0%      0.0%      0.0%
 flops     9 x    32 x     9       23722505551872     100.0%      0.0%      0.0%
 flops    22 x    32 x     9       33153656684544     100.0%      0.0%      0.0%
 flops     9 x    32 x    22       33153656684544     100.0%      0.0%      0.0%
 flops    22 x    32 x    22       46115724689408     100.0%      0.0%      0.0%
 flops    32 x    32 x   320       77824807403520     100.0%      0.0%      0.0%
 flops   320 x    32 x    32       95863670046720     100.0%      0.0%      0.0%
 flops   320 x    32 x   320      218184338636800     100.0%      0.0%      0.0%
 flops inhomo. stacks                           0       0.0%      0.0%      0.0%
 flops total                       574.888715E+12     100.0%      0.0%      0.0%
 flops max/rank                    145.346534E+09     100.0%      0.0%      0.0%
 matmuls inhomo. stacks                         0       0.0%      0.0%      0.0%
 matmuls total                        14503118976     100.0%      0.0%      0.0%
 number of processed stacks             968974336     100.0%      0.0%      0.0%
 average stack size                                    15.0       0.0       0.0
 marketing flops                     1.147134E+15
 -------------------------------------------------------------------------------
 # multiplications                           2431
 max memory usage/rank             269.934592E+06
 # max total images/rank                        1
 # max 3D layers                                1
 # MPI messages exchanged              1254629376
 MPI messages size (bytes):
  total size                        94.190017E+12
  min size                           0.000000E+00
  max size                         819.200000E+03
  average size                      75.073977E+03
 MPI breakdown and total messages size (bytes):
             size <=      128             8471232                        0
       128 < size <=     8192           578587968            4739792633856
      8192 < size <=    32768                   0                        0
     32768 < size <=   131072           559706112           45851124695040
    131072 < size <=  4194304           107864064           43599184729632
   4194304 < size <= 16777216                   0                        0
  16777216 < size                               0                        0
 -------------------------------------------------------------------------------
 -                                                                             -
 -                      DBCSR MESSAGE PASSING PERFORMANCE                      -
 -                                                                             -
 -------------------------------------------------------------------------------
 ROUTINE             CALLS      AVE VOLUME [Bytes]
 MP_Bcast               15                     12.
 MP_Allreduce        12959                     67.
 MP_Alltoall          9270               19678635.
 MP_ISend           622292                  37064.
 MP_IRecv           622292                  37030.
 -------------------------------------------------------------------------------

 -------------------------------------------------------------------------------
 -                                                                             -
 -                                GRID STATISTICS                              -
 -                                                                             -
 -------------------------------------------------------------------------------
 LP    KERNEL             BACKEND                              COUNT     PERCENT
 1     collocate ortho    REF                              135745301      17.53%
 1     integrate ortho    REF                              130493488      16.86%
 2     integrate ortho    REF                               88995618      11.50%
 2     collocate ortho    REF                               84560451      10.92%
 0     collocate ortho    REF                               75171698       9.71%
 0     collocate general  REF                               69206016       8.94%
 1     integrate general  REF                               69206016       8.94%
 0     integrate ortho    REF                               68664071       8.87%
 3     integrate ortho    REF                               26282166       3.39%
 3     collocate ortho    REF                               20755016       2.68%
 4     integrate ortho    REF                                3293394       0.43%
 4     collocate ortho    REF                                1638196       0.21%
 5     integrate ortho    REF                                 141925       0.02%
 -------------------------------------------------------------------------------

 MEMORY| Estimated peak process memory [MiB]                                 258

 -------------------------------------------------------------------------------
 -                                                                             -
 -                         MESSAGE PASSING PERFORMANCE                         -
 -                                                                             -
 -------------------------------------------------------------------------------

 ROUTINE             CALLS      AVE VOLUME [Bytes]
 MP_Group                4
 MP_Bcast             4017                  58695.
 MP_Allreduce        11016                   1625.
 MP_Sync              1660
 MP_Alltoall          2222
 MP_ISendRecv      2080260                   1656.
 MP_Wait           2102620
 MP_comm_split          66
 MP_ISend            93326                   6490.
 MP_IRecv            93326                   6490.
 -------------------------------------------------------------------------------


 -------------------------------------------------------------------------------
 -                                                                             -
 -                           R E F E R E N C E S                               -
 -                                                                             -
 -------------------------------------------------------------------------------
 
 CP2K version 8.2, the CP2K developers group (2021).
 CP2K is freely available from https://www.cp2k.org/ .

 Kuehne,Thomas D.; Iannuzzi,Marcella; Del Ben,Mauro;
 Rybkin,Vladimir V.; Seewald,Patrick; Stein,Frederick; Laino,Teodoro;
 Khaliullin,Rustam Z.; Schuett,Ole; Schiffmann,Florian; Golze,Dorothea;
 Wilhelm,Jan; Chulkov,Sergey; Bani-Hashemian,Mohammad Hossein;
 Weber,Valery; Borstnik,Urban; Taillefumier,Mathieu;
 Jakobovits,Alice Shoshana; Lazzaro,Alfio; Pabst,Hans; Mueller,Tiziano;
 Schade,Robert; Guidon,Manuel; Andermatt,Samuel; Holmberg,Nico;
 Schenter,Gregory K.; Hehn,Anna; Bussy,Augustin; Belleflamme,Fabian;
 Tabacchi,Gloria; Gloess,Andreas; Lass,Michael; Bethune,Iain;
 Mundy,Christopher J.; Plessl,Christian; Watkins,Matt;
 VandeVondele,Joost; Krack,Matthias; Hutter,Juerg. 
 The Journal of Chemical Physics, 152 (19), (2020). 
 CP2K: An electronic structure and molecular dynamics software package -
 Quickstep: Efficient and accurate electronic structure calculations.
 https://doi.org/10.1063/5.0007045

 Schuett, Ole; Messmer, Peter; Hutter, Juerg; VandeVondele, Joost. 
 Electronic Structure Calculations on Graphics Processing Units, John
 Wiley & Sons, Ltd, 173-190 (2016). 
 GPU-Accelerated Sparse Matrix-Matrix Multiplication for
 Linear Scaling Density Functional Theory.
 https://doi.org/10.1002/9781118670712.ch8

 Borstnik, U; VandeVondele, J; Weber, V; Hutter, J. 
 PARALLEL COMPUTING, 40 (5-6), 47-58 (2014). 
 Sparse matrix multiplication: The distributed block-compressed sparse
 row library.
 https://doi.org/10.1016/j.parco.2014.03.012

 Hutter, J; Iannuzzi, M; Schiffmann, F; VandeVondele, J. 
 WIREs Comput Mol Sci., 4 (1), 15-25 (2014). 
 CP2K: atomistic simulations of condensed matter systems.
 https://doi.org/10.1002/wcms.1159

 Marek, A; Blum, V; Johanni, R; Havu, V; Lang, B; Auckenthaler, T;
 Heinecke, A; Bungartz, H; Lederer, H. 
 Journal of Physics: Condensed Matter, 26 (21), (2014). 
 The ELPA library: scalable parallel eigenvalue solutions for
 electronic structure
 theory and computational science.
 https://doi.org/10.1088/0953-8984/26/21/213201

 Krack, M. 
 THEORETICAL CHEMISTRY ACCOUNTS, 114 (1-3), 145-152 (2005). 
 Pseudopotentials for H to Kr optimized for gradient-corrected
 exchange-correlation functionals.
 https://doi.org/10.1007/s00214-005-0655-y

 VandeVondele, J; Krack, M; Mohamed, F; Parrinello, M; Chassaing, T;
 Hutter, J. COMPUTER PHYSICS COMMUNICATIONS, 167 (2), 103-128 (2005). 
 QUICKSTEP: Fast and accurate density functional calculations using a
 mixed Gaussian and plane waves approach.
 https://doi.org/10.1016/j.cpc.2004.12.014

 Frigo, M; Johnson, SG. 
 PROCEEDINGS OF THE IEEE, 93 (2), 216-231 (2005). 
 The design and implementation of FFTW3.
 https://doi.org/10.1109/JPROC.2004.840301

 VandeVondele, J; Hutter, J. 
 JOURNAL OF CHEMICAL PHYSICS, 118 (10), 4365-4369 (2003). 
 An efficient orbital transformation method for electronic structure
 calculations.
 https://doi.org/10.1063/1.1543154

 Hartwigsen, C; Goedecker, S; Hutter, J. 
 PHYSICAL REVIEW B, 58 (7), 3641-3662 (1998). 
 Relativistic separable dual-space Gaussian pseudopotentials from H to Rn.
 https://doi.org/10.1103/PhysRevB.58.3641

 Lippert, G; Hutter, J; Parrinello, M. 
 MOLECULAR PHYSICS, 92 (3), 477-487 (1997). 
 A hybrid Gaussian and plane wave density functional scheme.
 https://doi.org/10.1080/002689797170220

 Goedecker, S; Teter, M; Hutter, J. 
 PHYSICAL REVIEW B, 54 (3), 1703-1710 (1996). 
 Separable dual-space Gaussian pseudopotentials.
 https://doi.org/10.1103/PhysRevB.54.1703


 -------------------------------------------------------------------------------
 -                                                                             -
 -                                T I M I N G                                  -
 -                                                                             -
 -------------------------------------------------------------------------------
 SUBROUTINE                       CALLS  ASD         SELF TIME        TOTAL TIME
                                MAXIMUM       AVERAGE  MAXIMUM  AVERAGE  MAXIMUM
 CP2K                                 1  1.0    0.422    0.456  405.283  405.304
 qs_mol_dyn_low                       1  2.0    0.005    0.007  404.062  404.084
 qs_forces                           11  3.9    0.007    0.009  398.249  398.252
 qs_energies                         11  4.9    0.001    0.002  396.150  396.158
 scf_env_do_scf                      11  5.9    0.001    0.001  240.970  240.980
 velocity_verlet                     10  3.0    0.002    0.004  163.868  163.870
 init_scf_loop                       11  6.9    0.001    0.001  137.812  137.823
 prepare_preconditioner              11  7.9    0.000    0.000  135.258  135.274
 make_preconditioner                 11  8.9    0.000    0.000  135.258  135.274
 mp_alltoall_d11v                  2299 14.0  109.410  110.153  109.410  110.153
 dbcsr_complete_redistribute        361 12.5    0.065    0.077  108.596  108.785
 scf_env_do_scf_inner_loop          116  6.6    0.003    0.008  102.809  102.811
 qs_rho_update_rho                  127  7.7    0.001    0.001   88.245   88.278
 calculate_rho_elec                 127  8.7    0.005    0.006   88.244   88.277
 density_rs2pw                      127  9.7    0.005    0.007   84.652   85.972
 init_scf_run                        11  5.9    0.000    0.001   83.475   83.484
 scf_env_initial_rho_setup           11  6.9    0.000    0.001   83.475   83.484
 qs_scf_new_mos                     116  7.6    0.001    0.002   78.935   79.008
 qs_scf_loop_do_ot                  116  8.6    0.001    0.001   78.934   79.008
 ot_scf_mini                        116  9.6    0.003    0.004   75.041   75.162
 mp_waitall_1                   3369824 15.0   36.600   71.987   36.600   71.987
 qs_energies_init_hamiltonians       11  5.9    0.001    0.002   69.966   69.970
 qs_env_update_s_mstruct             11  6.9    0.000    0.000   68.082   69.089
 make_full_inverse_cholesky          11  9.9    0.000    0.001   68.942   68.964
 copy_fm_to_dbcsr                   192 11.4    0.001    0.001   68.760   68.920
 transfer_fm_to_dbcsr                11  9.9    0.000    0.000   66.315   66.373
 qs_create_task_list                 11  7.9    0.000    0.009   61.099   62.227
 generate_qs_task_list               11  8.9    0.007    0.024   61.099   62.227
 distribute_tasks                    11  9.9    0.009    0.011   61.090   62.218
 create_local_tasks                  11 10.9    0.001    0.002   59.443   60.474
 mp_alltoall_l11v                    11 11.9   59.432   60.462   59.432   60.462
 pw_transfer                       1535 11.6    0.230    0.267   57.738   57.934
 fft_wrap_pw1pw2                   1281 12.7    0.005    0.005   57.505   57.737
 dbcsr_multiply_generic            2431 12.5    0.134    0.154   54.168   55.670
 fft3d_ps                           762 15.0    0.058    0.094   51.745   51.789
 mp_sync                           1660 16.9   24.044   51.590   24.044   51.590
 xz_to_yz                           381 14.7    0.058    0.093   51.169   51.194
 mp_isend_zv                      90424 17.0   24.201   46.283   24.201   46.283
 multiply_cannon                   2431 13.5    0.861    0.924   42.094   44.044
 copy_dbcsr_to_fm                   169 11.5    0.003    0.004   42.090   42.205
 multiply_cannon_loop              2431 14.5    0.583    0.628   39.646   41.513
 rs_pw_transfer                    1038 11.9    0.015    0.024   39.537   40.886
 transfer_dbcsr_to_fm                11 10.9    0.000    0.000   37.316   37.333
 ot_mini                            116 10.6    0.002    0.003   35.493   35.626
 qs_ot_get_p                        127 10.4    0.001    0.002   32.936   33.075
 wfi_extrapolate                     11  7.9    0.002    0.003   28.896   28.896
 qs_ot_p2m_diag                      66 11.2    0.007    0.008   27.506   27.514
 rs_pw_transfer_RS2PW_50            127 11.7    0.135    0.159   24.010   26.606
 cp_dbcsr_syevd                      66 12.2    0.006    0.011   26.333   26.428
 multiply_cannon_metrocomm1      155584 15.5    0.286    0.309   19.948   25.225
 cp_fm_cholesky_invert               11 10.9   25.208   25.211   25.208   25.211
 qs_ot_get_derivative               116 11.6    0.001    0.001   25.008   25.130
 cp_fm_diag_elpa                     66 13.2    0.000    0.001   23.605   23.625
 cp_fm_redistribute_end              66 14.2   21.889   22.932   21.969   22.936
 fft_wrap_pw1pw2_50                 254 14.0    0.003    0.006   22.679   22.704
 cp_fm_diag_elpa_base                66 14.2    0.180   20.590    0.183   21.389
 mp_waitany                       16364 13.9   12.476   20.928   12.476   20.928
 fft_wrap_pw1pw2_20                 254 14.0    0.001    0.004   18.194   18.220
 multiply_cannon_metrocomm3      155584 15.5    0.267    0.296    5.564   14.099
 mp_isend_dv                     319906 16.5    8.708   14.014    8.708   14.014
 rebuild_ks_matrix                  127  8.3    0.001    0.002   13.664   13.800
 qs_ks_build_kohn_sham_matrix       127  9.3    0.015    0.018   13.663   13.799
 multiply_cannon_multrec         155584 15.5    9.944   12.941    9.950   12.948
 mp_isend_dm3                      7884 13.9    6.300   12.467    6.300   12.467
 qs_ks_update_qs_env                127  7.6    0.002    0.003   12.255   12.380
 rs_pw_transfer_RS2PW_20            127 11.7    1.281    1.657    6.624   10.960
 fft_wrap_pw1pw2_10                 254 14.0    0.001    0.002   10.882   10.905
 apply_preconditioner_dbcsr         127 12.6    0.000    0.000    9.277   10.642
 apply_single                       127 13.6    0.000    0.000    9.276   10.642
 ot_diis_step                       116 11.6    0.040    0.044   10.391   10.392
 qs_ot_get_derivative_diag           62 12.2    0.001    0.002    9.334    9.409
 make_m2s                          4862 13.5    0.118    0.133    8.613    8.903
 make_images                       4862 14.5    0.801    0.956    8.248    8.531
 sum_up_and_integrate               127 10.3    0.002    0.003    8.428    8.446
 integrate_v_rspace                 127 11.3    0.003    0.005    8.426    8.444
 -------------------------------------------------------------------------------

 The number of warnings for this run is : 1
 
 -------------------------------------------------------------------------------
  **** **** ******  **  PROGRAM ENDED AT                 2022-01-20 10:42:23.599
 ***** ** ***  *** **   PROGRAM RAN ON                                 nid001588
 **    ****   ******    PROGRAM RAN BY                                    hjudge
 ***** **    ** ** **   PROGRAM PROCESS ID                                128974
  **** **  *******  **  PROGRAM STOPPED IN /mnt/lustre/a2fs-work2/work/z19/z19/h
                                           judge/CUG/archer2/CPU/CP2K/H2O-512/32
                                           NODES/128CPN/1THREADS
