 DBCSR| CPU Multiplication driver                                           BLAS
 DBCSR| Multrec recursion limit                                              512
 DBCSR| Multiplication stack size                                           1000
 DBCSR| Maximum elements for images                                    UNLIMITED
 DBCSR| Multiplicative factor virtual images                                   1
 DBCSR| Use multiplication densification                                       T
 DBCSR| Multiplication size stacks                                             3
 DBCSR| Use memory pool for CPU allocation                                     F
 DBCSR| Number of 3D layers                                               SINGLE
 DBCSR| Use MPI memory allocation                                              F
 DBCSR| Use RMA algorithm                                                      F
 DBCSR| Use Communication thread                                               T
 DBCSR| Communication thread load                                             83
 DBCSR| MPI: My node id                                                        0
 DBCSR| MPI: Number of nodes                                                1024
 DBCSR| OMP: Current number of threads                                         2
 DBCSR| OMP: Max number of threads                                             2
 DBCSR| Split modifier for TAS multiplication algorithm                  1.0E+00


  **** **** ******  **  PROGRAM STARTED AT               2022-01-20 10:41:56.574
 ***** ** ***  *** **   PROGRAM STARTED ON                             nid005755
 **    ****   ******    PROGRAM STARTED BY                                hjudge
 ***** **    ** ** **   PROGRAM PROCESS ID                                 92722
  **** **  *******  **  PROGRAM STARTED IN /mnt/lustre/a2fs-work2/work/z19/z19/h
                                           judge/CUG/archer2/CPU/CP2K/H2O-512/16
                                           NODES/128CPN/2THREADS

 CP2K| version string:                                          CP2K version 8.2
 CP2K| source code revision number:                                  git:310b7ab
 CP2K| cp2kflags: omp libint fftw3 libxc elpa parallel mpi3 scalapack plumed2   
 CP2K| is freely available from                            https://www.cp2k.org/
 CP2K| Program compiled at                          Thu Dec  2 10:30:45 GMT 2021
 CP2K| Program compiled on                                                  ln02
 CP2K| Program compiled for                                              ARCHER2
 CP2K| Data directory path         /work/y07/shared/apps/core/cp2k/cp2k-8.2/data
 CP2K| Input file name                                               H2O-512.inp

 GLOBAL| Force Environment number                                              1
 GLOBAL| Basis set file name                                      GTH_BASIS_SETS
 GLOBAL| Potential file name                                           POTENTIAL
 GLOBAL| MM Potential file name                                     MM_POTENTIAL
 GLOBAL| Coordinate file name                                      __STD_INPUT__
 GLOBAL| Method name                                                        CP2K
 GLOBAL| Project name                                                    H2O-512
 GLOBAL| Run type                                                             MD
 GLOBAL| FFT library                                                       FFTW3
 GLOBAL| Diagonalization library                                            ELPA
 GLOBAL| Minimum number of eigenvectors for ELPA usage                        16
 GLOBAL| Orthonormality check for eigenvectors                          DISABLED
 GLOBAL| Matrix multiplication library                                    SCALAP
 GLOBAL| All-to-all communication in single precision                          F
 GLOBAL| FFTs using library dependent lengths                                  F
 GLOBAL| Grid backend                                                       AUTO
 GLOBAL| Global print level                                                  LOW
 GLOBAL| MPI I/O enabled                                                       T
 GLOBAL| Total number of message passing processes                          1024
 GLOBAL| Number of threads for this process                                    2
 GLOBAL| This output is from process                                           0
 GLOBAL| CPU model name                          AMD EPYC 7742 64-Core Processor
 GLOBAL| CPUID                                                              1002

 MEMORY| system memory details [Kb]
 MEMORY|                        rank 0           min           max       average
 MEMORY| MemTotal            263528088     263528084     263528088     263528086
 MEMORY| MemFree             245741820     245079796     246551492     245699456
 MEMORY| Buffers                 36712         20136         36712         26996
 MEMORY| Cached                1060588        702204       1596624       1184202
 MEMORY| Slab                  1644712       1593288       1652040       1627903
 MEMORY| SReclaimable            92732         84816        103944         91530
 MEMORY| MemLikelyFree       246931852     246808128     247365420     247002185


 GENERATE|  Preliminary Number of Bonds generated:                             0
 GENERATE|  Achieved consistency in connectivity generation.

 *******************************************************************************
 *******************************************************************************
 **                                                                           **
 **     #####                         ##              ##                      **
 **    ##   ##            ##          ##              ##                      **
 **   ##     ##                       ##            ######                    **
 **   ##     ##  ##   ##  ##   #####  ##  ##   ####   ##    #####    #####    **
 **   ##     ##  ##   ##  ##  ##      ## ##   ##      ##   ##   ##  ##   ##   **
 **   ##  ## ##  ##   ##  ##  ##      ####     ###    ##   ######   ######    **
 **    ##  ###   ##   ##  ##  ##      ## ##      ##   ##   ##       ##        **
 **     #######   #####   ##   #####  ##  ##  ####    ##    #####   ##        **
 **           ##                                                    ##        **
 **                                                                           **
 **                                                ... make the atoms dance   **
 **                                                                           **
 **            Copyright (C) by CP2K developers group (2000-2021)             **
 **                      J. Chem. Phys. 152, 194103 (2020)                    **
 **                                                                           **
 *******************************************************************************


 TOTAL NUMBERS AND MAXIMUM NUMBERS

  Total number of            - Atomic kinds:                                   2
                             - Atoms:                                       1536
                             - Shell sets:                                  3072
                             - Shells:                                      9216
                             - Primitive Cartesian functions:              10752
                             - Cartesian basis functions:                  21504
                             - Spherical basis functions:                  20480

  Maximum angular momentum of- Orbital basis functions:                        2
                             - Local part of the GTH pseudopotential:          2
                             - Non-local part of the GTH pseudopotential:      0


 SCF PARAMETERS         Density guess:                                    ATOMIC
                        --------------------------------------------------------
                        max_scf:                                              50
                        max_scf_history:                                       0
                        max_diis:                                              4
                        --------------------------------------------------------
                        eps_scf:                                        1.00E-05
                        eps_scf_history:                                0.00E+00
                        eps_diis:                                       1.00E-01
                        eps_eigval:                                     1.00E-05
                        --------------------------------------------------------
                        level_shift [a.u.]:                                 0.00
                        --------------------------------------------------------
                        No outer SCF

 MD_PAR| Molecular dynamics protocol (MD input parameters)
 MD_PAR| Ensemble type                                                       NVE
 MD_PAR| Number of time steps                                                 10
 MD_PAR| Time step [fs]                                                 0.500000
 MD_PAR| Temperature [K]                                              300.000000
 MD_PAR| Temperature tolerance [K]                                      0.000000
 MD_PAR| Print MD information every                                    1 step(s)
 MD_PAR| File type   Print frequency [steps]                          File names
 MD_PAR| Coordinates          1                                H2O-512-pos-1.xyz
 MD_PAR| Velocities           1                                H2O-512-vel-1.xyz
 MD_PAR| Energies             1                                   H2O-512-1.ener
 MD_PAR| Dump                20                                H2O-512-1.restart

 ROT| Rotational analysis information
 ROT| Principal axes and moments of inertia [a.u.]
 ROT|                           1                   2                   3
 ROT| Eigenvalues      6.12011925703E+09   6.17734003456E+09   6.32378668800E+09
 ROT|      x              0.229702356692      0.883899672739      0.407379670409
 ROT|      y              0.711719446246      0.132949289019     -0.689768016354
 ROT|      z              0.663846561462     -0.448381372362      0.598549820611
 ROT| Number of rotovibrational vectors                                        6

 DOF| Calculation of degrees of freedom
 DOF| Number of atoms                                                       1536
 DOF| Number of intramolecular constraints                                     0
 DOF| Number of intermolecular constraints                                     0
 DOF| Invariants (translations + rotations)                                    3
 DOF| Degrees of freedom                                                    4605

 DOF| Restraints information
 DOF| Number of intramolecular restraints                                      0
 DOF| Number of intermolecular restraints                                      0

 MD_VEL| Velocities initialization
 MD_VEL| Initial temperature [K]                                      300.000000
 MD_VEL| COM velocity             0.0000000000    -0.0000000000     0.0000000000

 Number of electrons:                                                       4096
 Number of occupied orbitals:                                               2048
 Number of molecular orbitals:                                              2048

 Number of orbital functions:                                              20480
 Number of independent orbital functions:                                  20480

 Extrapolation method: initial_guess


 SCF WAVEFUNCTION OPTIMIZATION

  ----------------------------------- OT ---------------------------------------
  Minimizer      : DIIS                : direct inversion
                                         in the iterative subspace
                                         using   7 DIIS vectors
                                         safer DIIS on
  Preconditioner : FULL_KINETIC        : inversion of T + eS
  Precond_solver : DEFAULT
  stepsize       :    0.15000000                  energy_gap     :    0.20000000
  eps_taylor     :   0.10000E-15                  max_taylor     :             4
  ----------------------------------- OT ---------------------------------------

  Step     Update method      Time    Convergence         Total energy    Change
  ------------------------------------------------------------------------------
     1 OT DIIS     0.15E+00   24.8     0.00467324     -8480.4728425690 -8.48E+03
     2 OT DIIS     0.15E+00    0.8     0.00318266     -8587.4488310143 -1.07E+02
     3 OT DIIS     0.15E+00    0.8     0.00347210     -8644.7931966768 -5.73E+01
     4 OT DIIS     0.15E+00    0.8     0.00204380     -8678.2157923835 -3.34E+01
     5 OT DIIS     0.15E+00    0.8     0.00148292     -8717.4624183879 -3.92E+01
     6 OT DIIS     0.15E+00    0.8     0.00119954     -8738.7795043572 -2.13E+01
     7 OT DIIS     0.15E+00    0.8     0.00099038     -8755.0185947301 -1.62E+01
     8 OT DIIS     0.15E+00    0.8     0.00079894     -8767.5347825454 -1.25E+01
     9 OT DIIS     0.15E+00    0.8     0.00061581     -8780.1862563834 -1.27E+01
    10 OT DIIS     0.15E+00    0.8     0.00048147     -8788.6147471043 -8.43E+00
    11 OT DIIS     0.15E+00    0.8     0.00038278     -8794.1215228889 -5.51E+00
    12 OT DIIS     0.15E+00    0.8     0.00031960     -8797.5363589594 -3.41E+00
    13 OT DIIS     0.15E+00    0.8     0.00026435     -8799.9344030908 -2.40E+00
    14 OT DIIS     0.15E+00    0.8     0.00023004     -8801.7089305035 -1.77E+00
    15 OT DIIS     0.15E+00    0.8     0.00019592     -8803.0697888564 -1.36E+00
    16 OT DIIS     0.15E+00    0.8     0.00016642     -8804.2000843411 -1.13E+00
    17 OT DIIS     0.15E+00    0.8     0.00014164     -8805.0506655806 -8.51E-01
    18 OT DIIS     0.15E+00    0.8     0.00012638     -8805.6725421207 -6.22E-01
    19 OT DIIS     0.15E+00    0.8     0.00010717     -8806.2171485645 -5.45E-01
    20 OT DIIS     0.15E+00    0.8     0.00009868     -8806.5290018963 -3.12E-01
    21 OT DIIS     0.15E+00    0.8     0.00008484     -8806.8772741195 -3.48E-01
    22 OT DIIS     0.15E+00    0.8     0.00007717     -8807.0943334427 -2.17E-01
    23 OT DIIS     0.15E+00    0.8     0.00006815     -8807.2974129499 -2.03E-01
    24 OT DIIS     0.15E+00    0.8     0.00006019     -8807.4529078233 -1.55E-01
    25 OT DIIS     0.15E+00    0.8     0.00005010     -8807.5989834234 -1.46E-01
    26 OT DIIS     0.15E+00    0.8     0.00004000     -8807.6989662228 -1.00E-01
    27 OT DIIS     0.15E+00    0.8     0.00003462     -8807.7827122402 -8.37E-02
    28 OT DIIS     0.15E+00    0.8     0.00003071     -8807.7824932500  2.19E-04
    29 OT DIIS     0.15E+00    0.8     0.00002690     -8807.8200993195 -3.76E-02
    30 OT DIIS     0.15E+00    0.8     0.00002500     -8807.8399634016 -1.99E-02
    31 OT DIIS     0.15E+00    0.8     0.00002395     -8807.8566460922 -1.67E-02
    32 OT DIIS     0.15E+00    0.8     0.00002328     -8807.8682689643 -1.16E-02
    33 OT DIIS     0.15E+00    0.8     0.00002304     -8807.8827275965 -1.45E-02
    34 OT DIIS     0.15E+00    0.8     0.00002300     -8807.8854890296 -2.76E-03
    35 OT SD       0.15E+00    0.8     0.00002301     -8807.8907467596 -5.26E-03
    36 OT SD       0.15E+00    0.8     0.00002308     -8807.8940817096 -3.33E-03
    37 OT SD       0.15E+00    0.8     0.00002318     -8807.8974407043 -3.36E-03
    38 OT SD       0.15E+00    0.8     0.00002329     -8807.9008284718 -3.39E-03
    39 OT SD       0.15E+00    0.8     0.00002341     -8807.9042491083 -3.42E-03
    40 OT SD       0.15E+00    0.8     0.00002354     -8807.9077063659 -3.46E-03
    41 OT SD       0.15E+00    0.8     0.00002369     -8807.9112037365 -3.50E-03
    42 OT SD       0.15E+00    0.8     0.00002384     -8807.9147444866 -3.54E-03
    43 OT SD       0.15E+00    0.8     0.00002400     -8807.9183316715 -3.59E-03
    44 OT SD       0.15E+00    0.8     0.00002417     -8807.9219681410 -3.64E-03
    45 OT DIIS     0.15E+00    0.8     0.00002435     -8807.9256565391 -3.69E-03
    46 OT DIIS     0.15E+00    0.8     0.00004962     -8807.9133820723  1.23E-02
    47 OT SD       0.15E+00    0.8     0.00005089     -8807.9142185699 -8.36E-04
    48 OT SD       0.15E+00    0.8     0.00004014     -8807.9284773392 -1.43E-02
    49 OT SD       0.15E+00    0.8     0.00003558     -8807.9379552005 -9.48E-03
    50 OT SD       0.15E+00    0.8     0.00003335     -8807.9456319672 -7.68E-03

  Leaving inner SCF loop after reaching    50 steps.


  Electronic density on regular grids:      -4096.0000074312       -0.0000074312
  Core density on regular grids:             4095.9999999927       -0.0000000073
  Total charge density on r-space grids:       -0.0000074385
  Total charge density g-space grids:          -0.0000074385

  Overlap energy of the core charge distribution:               0.00004500798551
  Self energy of the core charge distribution:             -22442.43995950839599
  Core Hamiltonian energy:                                   6603.78887615367421
  Hartree energy:                                            9161.23639542220189
  Exchange-correlation energy:                              -2130.53098904263061

  Total energy:                                             -8807.94563196716445

 *** WARNING in qs_scf.F:576 :: SCF run NOT converged ***


 ENERGY| Total FORCE_EVAL ( QS ) energy [a.u.]:            -8807.952493459239122

 MD_INI| MD initialization
 MD_INI| Potential energy [hartree]                          -0.880795249346E+04
 MD_INI| Kinetic energy [hartree]                             0.218747769838E+01
 MD_INI| Temperature [K]                                              300.000000
 MD_INI| Cell volume [bohr^3]                                 1.037187315243E+05
 MD_INI| Cell volume [ang^3]                                  1.536953010365E+04
 MD_INI| Cell lengths [bohr]      4.69842608E+01  4.69842608E+01  4.69842608E+01
 MD_INI| Cell lengths [ang]       2.48630000E+01  2.48630000E+01  2.48630000E+01
 MD_INI| Cell angles [deg]        9.00000000E+01  9.00000000E+01  9.00000000E+01

 Number of electrons:                                                       4096
 Number of occupied orbitals:                                               2048
 Number of molecular orbitals:                                              2048

 Number of orbital functions:                                              20480
 Number of independent orbital functions:                                  20480

 Extrapolation method: PS Nth order
 Extrapolation order:  0


 SCF WAVEFUNCTION OPTIMIZATION

  ----------------------------------- OT ---------------------------------------
  Minimizer      : DIIS                : direct inversion
                                         in the iterative subspace
                                         using   7 DIIS vectors
                                         safer DIIS on
  Preconditioner : FULL_KINETIC        : inversion of T + eS
  Precond_solver : DEFAULT
  stepsize       :    0.15000000                  energy_gap     :    0.20000000
  eps_taylor     :   0.10000E-15                  max_taylor     :             4
  ----------------------------------- OT ---------------------------------------

  Step     Update method      Time    Convergence         Total energy    Change
  ------------------------------------------------------------------------------
     1 OT DIIS     0.15E+00    2.7     0.00010167     -8807.9545427493 -8.81E+03
     2 OT DIIS     0.15E+00    0.5     0.00007399     -8808.0092930064 -5.48E-02
     3 OT DIIS     0.15E+00    0.5     0.00005493     -8808.0646801394 -5.54E-02
     4 OT DIIS     0.15E+00    0.5     0.00004933     -8808.1020919396 -3.74E-02
     5 OT DIIS     0.15E+00    0.8     0.00004590     -8808.1450129644 -4.29E-02
     6 OT DIIS     0.15E+00    0.8     0.00004349     -8808.1871843837 -4.22E-02
     7 OT DIIS     0.15E+00    0.8     0.00003911     -8808.2475129483 -6.03E-02
     8 OT DIIS     0.15E+00    0.8     0.00002830     -8808.3273599911 -7.98E-02
     9 OT DIIS     0.15E+00    0.8     0.00002026     -8808.3586439206 -3.13E-02
    10 OT DIIS     0.15E+00    0.8     0.00001288     -8808.3785313261 -1.99E-02
    11 OT DIIS     0.15E+00    0.8     0.00001026     -8808.3792598929 -7.29E-04
    12 OT DIIS     0.15E+00    0.8     0.00000705     -8808.3828053031 -3.55E-03

  *** SCF run converged in    12 steps ***


  Electronic density on regular grids:      -4096.0000079114       -0.0000079114
  Core density on regular grids:             4095.9999999916       -0.0000000084
  Total charge density on r-space grids:       -0.0000079198
  Total charge density g-space grids:          -0.0000079198

  Overlap energy of the core charge distribution:               0.00004378131591
  Self energy of the core charge distribution:             -22442.43995950839599
  Core Hamiltonian energy:                                   6601.18520466798145
  Hartree energy:                                            9162.94004334062265
  Exchange-correlation energy:                              -2130.06813758461931

  Total energy:                                             -8808.38280530309748

 ENERGY| Total FORCE_EVAL ( QS ) energy [a.u.]:            -8808.383481343351377

 MD| ***************************************************************************
 MD| Step number                                                               1
 MD| Time [fs]                                                          0.500000
 MD| Conserved quantity [hartree]                            -0.880615757081E+04
 MD| ---------------------------------------------------------------------------
 MD|                                          Instantaneous             Averages
 MD| CPU time per MD step [s]                     98.185912            98.185912
 MD| Energy drift per atom [K]          -0.807024300942E+02   0.000000000000E+00
 MD| Potential energy [hartree]         -0.880838348134E+04  -0.880838348134E+04
 MD| Kinetic energy [hartree]            0.222591053271E+01   0.222591053271E+01
 MD| Temperature [K]                             305.270842           305.270842
 MD| ***************************************************************************

 Number of electrons:                                                       4096
 Number of occupied orbitals:                                               2048
 Number of molecular orbitals:                                              2048

 Number of orbital functions:                                              20480
 Number of independent orbital functions:                                  20480

 Extrapolation method: PS Nth order
 Extrapolation order:  1


 SCF WAVEFUNCTION OPTIMIZATION

  ----------------------------------- OT ---------------------------------------
  Minimizer      : DIIS                : direct inversion
                                         in the iterative subspace
                                         using   7 DIIS vectors
                                         safer DIIS on
  Preconditioner : FULL_KINETIC        : inversion of T + eS
  Precond_solver : DEFAULT
  stepsize       :    0.15000000                  energy_gap     :    0.20000000
  eps_taylor     :   0.10000E-15                  max_taylor     :             4
  ----------------------------------- OT ---------------------------------------

  Step     Update method      Time    Convergence         Total energy    Change
  ------------------------------------------------------------------------------
     1 OT DIIS     0.15E+00    2.7     0.00008001     -8808.4313138416 -8.81E+03
     2 OT DIIS     0.15E+00    0.5     0.00005271     -8808.4637486043 -3.24E-02
     3 OT DIIS     0.15E+00    0.5     0.00003321     -8808.4886529887 -2.49E-02
     4 OT DIIS     0.15E+00    0.5     0.00002251     -8808.5029476715 -1.43E-02
     5 OT DIIS     0.15E+00    0.5     0.00001406     -8808.5119302372 -8.98E-03
     6 OT DIIS     0.15E+00    0.5     0.00000837     -8808.5159234176 -3.99E-03

  *** SCF run converged in     6 steps ***


  Electronic density on regular grids:      -4096.0000084060       -0.0000084060
  Core density on regular grids:             4095.9999999941       -0.0000000059
  Total charge density on r-space grids:       -0.0000084119
  Total charge density g-space grids:          -0.0000084119

  Overlap energy of the core charge distribution:               0.00003948978190
  Self energy of the core charge distribution:             -22442.43995950839599
  Core Hamiltonian energy:                                   6592.75634129944592
  Hartree energy:                                            9168.97933923170422
  Exchange-correlation energy:                              -2127.81168393008920

  Total energy:                                             -8808.51592341755168

 ENERGY| Total FORCE_EVAL ( QS ) energy [a.u.]:            -8808.517234951566934

 MD| ***************************************************************************
 MD| Step number                                                               2
 MD| Time [fs]                                                          1.000000
 MD| Conserved quantity [hartree]                            -0.880616182000E+04
 MD| ---------------------------------------------------------------------------
 MD|                                          Instantaneous             Averages
 MD| CPU time per MD step [s]                      6.689388            52.437650
 MD| Energy drift per atom [K]          -0.815759895391E+02  -0.407879947696E+02
 MD| Potential energy [hartree]         -0.880851723495E+04  -0.880845035815E+04
 MD| Kinetic energy [hartree]            0.235541494830E+01   0.229066274051E+01
 MD| Temperature [K]                             323.031629           314.151236
 MD| ***************************************************************************

 Number of electrons:                                                       4096
 Number of occupied orbitals:                                               2048
 Number of molecular orbitals:                                              2048

 Number of orbital functions:                                              20480
 Number of independent orbital functions:                                  20480

 Extrapolation method: PS Nth order
 Extrapolation order:  2


 SCF WAVEFUNCTION OPTIMIZATION

  ----------------------------------- OT ---------------------------------------
  Minimizer      : DIIS                : direct inversion
                                         in the iterative subspace
                                         using   7 DIIS vectors
                                         safer DIIS on
  Preconditioner : FULL_KINETIC        : inversion of T + eS
  Precond_solver : DEFAULT
  stepsize       :    0.15000000                  energy_gap     :    0.20000000
  eps_taylor     :   0.10000E-15                  max_taylor     :             4
  ----------------------------------- OT ---------------------------------------

  Step     Update method      Time    Convergence         Total energy    Change
  ------------------------------------------------------------------------------
     1 OT DIIS     0.15E+00    2.7     0.00008988     -8808.3717281609 -8.81E+03
     2 OT DIIS     0.15E+00    0.5     0.00007427     -8808.4174298169 -4.57E-02
     3 OT DIIS     0.15E+00    0.5     0.00005876     -8808.4862051555 -6.88E-02
     4 OT DIIS     0.15E+00    0.5     0.00004979     -8808.5436926932 -5.75E-02
     5 OT DIIS     0.15E+00    0.5     0.00004006     -8808.6033866823 -5.97E-02
     6 OT DIIS     0.15E+00    0.8     0.00002840     -8808.6545544589 -5.12E-02
     7 OT DIIS     0.15E+00    0.8     0.00001854     -8808.6820995066 -2.75E-02
     8 OT DIIS     0.15E+00    0.8     0.00001252     -8808.6920699216 -9.97E-03
     9 OT DIIS     0.15E+00    0.8     0.00000891     -8808.6959111156 -3.84E-03

  *** SCF run converged in     9 steps ***


  Electronic density on regular grids:      -4096.0000081507       -0.0000081507
  Core density on regular grids:             4095.9999999985       -0.0000000015
  Total charge density on r-space grids:       -0.0000081522
  Total charge density g-space grids:          -0.0000081522

  Overlap energy of the core charge distribution:               0.00003222725368
  Self energy of the core charge distribution:             -22442.43995950839599
  Core Hamiltonian energy:                                   6579.97336091739635
  Hartree energy:                                            9178.11107431213895
  Exchange-correlation energy:                              -2124.34041906403309

  Total energy:                                             -8808.69591111563932

 ENERGY| Total FORCE_EVAL ( QS ) energy [a.u.]:            -8808.697758731166687

 MD| ***************************************************************************
 MD| Step number                                                               3
 MD| Time [fs]                                                          1.500000
 MD| Conserved quantity [hartree]                            -0.880616479960E+04
 MD| ---------------------------------------------------------------------------
 MD|                                          Instantaneous             Averages
 MD| CPU time per MD step [s]                      9.294006            38.056435
 MD| Energy drift per atom [K]          -0.821885421603E+02  -0.545881772331E+02
 MD| Potential energy [hartree]         -0.880869775873E+04  -0.880853282501E+04
 MD| Kinetic energy [hartree]            0.253295913206E+01   0.237142820436E+01
 MD| Temperature [K]                             347.380794           325.227755
 MD| ***************************************************************************

 Number of electrons:                                                       4096
 Number of occupied orbitals:                                               2048
 Number of molecular orbitals:                                              2048

 Number of orbital functions:                                              20480
 Number of independent orbital functions:                                  20480

 Extrapolation method: PS Nth order
 Extrapolation order:  3


 SCF WAVEFUNCTION OPTIMIZATION

  ----------------------------------- OT ---------------------------------------
  Minimizer      : DIIS                : direct inversion
                                         in the iterative subspace
                                         using   7 DIIS vectors
                                         safer DIIS on
  Preconditioner : FULL_KINETIC        : inversion of T + eS
  Precond_solver : DEFAULT
  stepsize       :    0.15000000                  energy_gap     :    0.20000000
  eps_taylor     :   0.10000E-15                  max_taylor     :             4
  ----------------------------------- OT ---------------------------------------

  Step     Update method      Time    Convergence         Total energy    Change
  ------------------------------------------------------------------------------
     1 OT DIIS     0.15E+00    2.7     0.00008299     -8808.7601048643 -8.81E+03
     2 OT DIIS     0.15E+00    0.5     0.00005686     -8808.7956218658 -3.55E-02
     3 OT DIIS     0.15E+00    0.5     0.00003614     -8808.8258160216 -3.02E-02
     4 OT DIIS     0.15E+00    0.5     0.00002270     -8808.8440357715 -1.82E-02
     5 OT DIIS     0.15E+00    0.5     0.00001489     -8808.8523333541 -8.30E-03
     6 OT DIIS     0.15E+00    0.5     0.00000969     -8808.8563579402 -4.02E-03

  *** SCF run converged in     6 steps ***


  Electronic density on regular grids:      -4096.0000085818       -0.0000085818
  Core density on regular grids:             4096.0000000009        0.0000000009
  Total charge density on r-space grids:       -0.0000085809
  Total charge density g-space grids:          -0.0000085809

  Overlap energy of the core charge distribution:               0.00002346613257
  Self energy of the core charge distribution:             -22442.43995950839599
  Core Hamiltonian energy:                                   6564.27156888651280
  Hartree energy:                                            9189.38287330308594
  Exchange-correlation energy:                              -2120.07086408752548

  Total energy:                                             -8808.85635794019072

 ENERGY| Total FORCE_EVAL ( QS ) energy [a.u.]:            -8808.858124301717908

 MD| ***************************************************************************
 MD| Step number                                                               4
 MD| Time [fs]                                                          2.000000
 MD| Conserved quantity [hartree]                            -0.880616980292E+04
 MD| ---------------------------------------------------------------------------
 MD|                                          Instantaneous             Averages
 MD| CPU time per MD step [s]                      6.765868            30.233793
 MD| Energy drift per atom [K]          -0.832171378891E+02  -0.617454173971E+02
 MD| Potential energy [hartree]         -0.880885812430E+04  -0.880861414983E+04
 MD| Kinetic energy [hartree]            0.268832137809E+01   0.245065149779E+01
 MD| Temperature [K]                             368.687833           336.092775
 MD| ***************************************************************************

 Number of electrons:                                                       4096
 Number of occupied orbitals:                                               2048
 Number of molecular orbitals:                                              2048

 Number of orbital functions:                                              20480
 Number of independent orbital functions:                                  20480

 Extrapolation method: PS Nth order
 Extrapolation order:  3


 SCF WAVEFUNCTION OPTIMIZATION

  ----------------------------------- OT ---------------------------------------
  Minimizer      : DIIS                : direct inversion
                                         in the iterative subspace
                                         using   7 DIIS vectors
                                         safer DIIS on
  Preconditioner : FULL_KINETIC        : inversion of T + eS
  Precond_solver : DEFAULT
  stepsize       :    0.15000000                  energy_gap     :    0.20000000
  eps_taylor     :   0.10000E-15                  max_taylor     :             4
  ----------------------------------- OT ---------------------------------------

  Step     Update method      Time    Convergence         Total energy    Change
  ------------------------------------------------------------------------------
     1 OT DIIS     0.15E+00    2.7     0.00005398     -8808.8521902308 -8.81E+03
     2 OT DIIS     0.15E+00    0.5     0.00004360     -8808.8685903243 -1.64E-02
     3 OT DIIS     0.15E+00    0.8     0.00002876     -8808.8948220602 -2.62E-02
     4 OT DIIS     0.15E+00    0.8     0.00002104     -8808.9082155045 -1.34E-02
     5 OT DIIS     0.15E+00    0.8     0.00001317     -8808.9185217642 -1.03E-02
     6 OT DIIS     0.15E+00    0.8     0.00000843     -8808.9223724588 -3.85E-03

  *** SCF run converged in     6 steps ***


  Electronic density on regular grids:      -4096.0000071800       -0.0000071800
  Core density on regular grids:             4095.9999999999       -0.0000000001
  Total charge density on r-space grids:       -0.0000071801
  Total charge density g-space grids:          -0.0000071801

  Overlap energy of the core charge distribution:               0.00001548083478
  Self energy of the core charge distribution:             -22442.43995950839599
  Core Hamiltonian energy:                                   6547.40961106117902
  Hartree energy:                                            9201.58656929157587
  Exchange-correlation energy:                              -2115.47860878404117

  Total energy:                                             -8808.92237245884826

 ENERGY| Total FORCE_EVAL ( QS ) energy [a.u.]:            -8808.923935384224023

 MD| ***************************************************************************
 MD| Step number                                                               5
 MD| Time [fs]                                                          2.500000
 MD| Conserved quantity [hartree]                            -0.880617229134E+04
 MD| ---------------------------------------------------------------------------
 MD|                                          Instantaneous             Averages
 MD| CPU time per MD step [s]                      7.753388            25.737712
 MD| Energy drift per atom [K]          -0.837287117695E+02  -0.661420762716E+02
 MD| Potential energy [hartree]         -0.880892393538E+04  -0.880867610694E+04
 MD| Kinetic energy [hartree]            0.275164404841E+01   0.251085000791E+01
 MD| Temperature [K]                             377.372174           344.348655
 MD| ***************************************************************************

 Number of electrons:                                                       4096
 Number of occupied orbitals:                                               2048
 Number of molecular orbitals:                                              2048

 Number of orbital functions:                                              20480
 Number of independent orbital functions:                                  20480

 Extrapolation method: PS Nth order
 Extrapolation order:  3


 SCF WAVEFUNCTION OPTIMIZATION

  ----------------------------------- OT ---------------------------------------
  Minimizer      : DIIS                : direct inversion
                                         in the iterative subspace
                                         using   7 DIIS vectors
                                         safer DIIS on
  Preconditioner : FULL_KINETIC        : inversion of T + eS
  Precond_solver : DEFAULT
  stepsize       :    0.15000000                  energy_gap     :    0.20000000
  eps_taylor     :   0.10000E-15                  max_taylor     :             4
  ----------------------------------- OT ---------------------------------------

  Step     Update method      Time    Convergence         Total energy    Change
  ------------------------------------------------------------------------------
     1 OT DIIS     0.15E+00    2.7     0.00004459     -8808.8152215508 -8.81E+03
     2 OT DIIS     0.15E+00    0.5     0.00003657     -8808.8265172069 -1.13E-02
     3 OT DIIS     0.15E+00    0.5     0.00002088     -8808.8466687410 -2.02E-02
     4 OT DIIS     0.15E+00    0.5     0.00001310     -8808.8539210333 -7.25E-03
     5 OT DIIS     0.15E+00    0.5     0.00000884     -8808.8567200454 -2.80E-03

  *** SCF run converged in     5 steps ***


  Electronic density on regular grids:      -4096.0000062625       -0.0000062625
  Core density on regular grids:             4095.9999999983       -0.0000000017
  Total charge density on r-space grids:       -0.0000062642
  Total charge density g-space grids:          -0.0000062642

  Overlap energy of the core charge distribution:               0.00000971625351
  Self energy of the core charge distribution:             -22442.43995950839599
  Core Hamiltonian energy:                                   6531.17271208862803
  Hartree energy:                                            9213.44169956211044
  Exchange-correlation energy:                              -2111.03118190402392

  Total energy:                                             -8808.85672004542903

 ENERGY| Total FORCE_EVAL ( QS ) energy [a.u.]:            -8808.858096283427585

 MD| ***************************************************************************
 MD| Step number                                                               6
 MD| Time [fs]                                                          3.000000
 MD| Conserved quantity [hartree]                            -0.880617011489E+04
 MD| ---------------------------------------------------------------------------
 MD|                                          Instantaneous             Averages
 MD| CPU time per MD step [s]                      6.140182            22.471457
 MD| Energy drift per atom [K]          -0.832812732647E+02  -0.689986091038E+02
 MD| Potential energy [hartree]         -0.880885809628E+04  -0.880870643850E+04
 MD| Kinetic energy [hartree]            0.268798139069E+01   0.254037190504E+01
 MD| Temperature [K]                             368.641206           348.397413
 MD| ***************************************************************************

 Number of electrons:                                                       4096
 Number of occupied orbitals:                                               2048
 Number of molecular orbitals:                                              2048

 Number of orbital functions:                                              20480
 Number of independent orbital functions:                                  20480

 Extrapolation method: PS Nth order
 Extrapolation order:  3


 SCF WAVEFUNCTION OPTIMIZATION

  ----------------------------------- OT ---------------------------------------
  Minimizer      : DIIS                : direct inversion
                                         in the iterative subspace
                                         using   7 DIIS vectors
                                         safer DIIS on
  Preconditioner : FULL_KINETIC        : inversion of T + eS
  Precond_solver : DEFAULT
  stepsize       :    0.15000000                  energy_gap     :    0.20000000
  eps_taylor     :   0.10000E-15                  max_taylor     :             4
  ----------------------------------- OT ---------------------------------------

  Step     Update method      Time    Convergence         Total energy    Change
  ------------------------------------------------------------------------------
     1 OT DIIS     0.15E+00    2.7     0.00004551     -8808.6384759041 -8.81E+03
     2 OT DIIS     0.15E+00    0.5     0.00003729     -8808.6502428170 -1.18E-02
     3 OT DIIS     0.15E+00    0.5     0.00002023     -8808.6710755539 -2.08E-02
     4 OT DIIS     0.15E+00    0.5     0.00001308     -8808.6771452551 -6.07E-03
     5 OT DIIS     0.15E+00    0.5     0.00000755     -8808.6802142227 -3.07E-03

  *** SCF run converged in     5 steps ***


  Electronic density on regular grids:      -4096.0000050933       -0.0000050933
  Core density on regular grids:             4095.9999999989       -0.0000000011
  Total charge density on r-space grids:       -0.0000050945
  Total charge density g-space grids:          -0.0000050945

  Overlap energy of the core charge distribution:               0.00000622091966
  Self energy of the core charge distribution:             -22442.43995950839599
  Core Hamiltonian energy:                                   6517.03118095696846
  Hartree energy:                                            9223.86272473761528
  Exchange-correlation energy:                              -2107.13416662976124

  Total energy:                                             -8808.68021422265520

 ENERGY| Total FORCE_EVAL ( QS ) energy [a.u.]:            -8808.681147920367948

 MD| ***************************************************************************
 MD| Step number                                                               7
 MD| Time [fs]                                                          3.500000
 MD| Conserved quantity [hartree]                            -0.880616595912E+04
 MD| ---------------------------------------------------------------------------
 MD|                                          Instantaneous             Averages
 MD| CPU time per MD step [s]                      6.085042            20.130541
 MD| Energy drift per atom [K]          -0.824269192383E+02  -0.709169391230E+02
 MD| Potential energy [hartree]         -0.880868114792E+04  -0.880870282556E+04
 MD| Kinetic energy [hartree]            0.251518880072E+01   0.253677431871E+01
 MD| Temperature [K]                             344.943695           347.904025
 MD| ***************************************************************************

 Number of electrons:                                                       4096
 Number of occupied orbitals:                                               2048
 Number of molecular orbitals:                                              2048

 Number of orbital functions:                                              20480
 Number of independent orbital functions:                                  20480

 Extrapolation method: PS Nth order
 Extrapolation order:  3


 SCF WAVEFUNCTION OPTIMIZATION

  ----------------------------------- OT ---------------------------------------
  Minimizer      : DIIS                : direct inversion
                                         in the iterative subspace
                                         using   7 DIIS vectors
                                         safer DIIS on
  Preconditioner : FULL_KINETIC        : inversion of T + eS
  Precond_solver : DEFAULT
  stepsize       :    0.15000000                  energy_gap     :    0.20000000
  eps_taylor     :   0.10000E-15                  max_taylor     :             4
  ----------------------------------- OT ---------------------------------------

  Step     Update method      Time    Convergence         Total energy    Change
  ------------------------------------------------------------------------------
     1 OT DIIS     0.15E+00    2.7     0.00004640     -8808.4083474483 -8.81E+03
     2 OT DIIS     0.15E+00    0.5     0.00003771     -8808.4205175920 -1.22E-02
     3 OT DIIS     0.15E+00    0.5     0.00002094     -8808.4409405171 -2.04E-02
     4 OT DIIS     0.15E+00    0.5     0.00001360     -8808.4479497338 -7.01E-03
     5 OT DIIS     0.15E+00    0.5     0.00001073     -8808.4504245361 -2.47E-03
     6 OT DIIS     0.15E+00    0.5     0.00000737     -8808.4530066759 -2.58E-03

  *** SCF run converged in     6 steps ***


  Electronic density on regular grids:      -4096.0000038469       -0.0000038469
  Core density on regular grids:             4096.0000000008        0.0000000008
  Total charge density on r-space grids:       -0.0000038461
  Total charge density g-space grids:          -0.0000038461

  Overlap energy of the core charge distribution:               0.00000436187141
  Self energy of the core charge distribution:             -22442.43995950839599
  Core Hamiltonian energy:                                   6506.06509324209310
  Hartree energy:                                            9232.01158593945365
  Exchange-correlation energy:                              -2104.08973071091532

  Total energy:                                             -8808.45300667589254

 ENERGY| Total FORCE_EVAL ( QS ) energy [a.u.]:            -8808.454571503230909

 MD| ***************************************************************************
 MD| Step number                                                               8
 MD| Time [fs]                                                          4.000000
 MD| Conserved quantity [hartree]                            -0.880616115212E+04
 MD| ---------------------------------------------------------------------------
 MD|                                          Instantaneous             Averages
 MD| CPU time per MD step [s]                      6.580597            18.436798
 MD| Energy drift per atom [K]          -0.814386837097E+02  -0.722321571963E+02
 MD| Potential energy [hartree]         -0.880845457150E+04  -0.880867179380E+04
 MD| Kinetic energy [hartree]            0.229341938687E+01   0.250635495223E+01
 MD| Temperature [K]                             314.529294           343.732184
 MD| ***************************************************************************

 Number of electrons:                                                       4096
 Number of occupied orbitals:                                               2048
 Number of molecular orbitals:                                              2048

 Number of orbital functions:                                              20480
 Number of independent orbital functions:                                  20480

 Extrapolation method: PS Nth order
 Extrapolation order:  3


 SCF WAVEFUNCTION OPTIMIZATION

  ----------------------------------- OT ---------------------------------------
  Minimizer      : DIIS                : direct inversion
                                         in the iterative subspace
                                         using   7 DIIS vectors
                                         safer DIIS on
  Preconditioner : FULL_KINETIC        : inversion of T + eS
  Precond_solver : DEFAULT
  stepsize       :    0.15000000                  energy_gap     :    0.20000000
  eps_taylor     :   0.10000E-15                  max_taylor     :             4
  ----------------------------------- OT ---------------------------------------

  Step     Update method      Time    Convergence         Total energy    Change
  ------------------------------------------------------------------------------
     1 OT DIIS     0.15E+00    2.7     0.00004051     -8808.2146938520 -8.81E+03
     2 OT DIIS     0.15E+00    0.5     0.00003407     -8808.2241561545 -9.46E-03
     3 OT DIIS     0.15E+00    0.5     0.00001718     -8808.2450184349 -2.09E-02
     4 OT DIIS     0.15E+00    0.5     0.00001245     -8808.2495174601 -4.50E-03
     5 OT DIIS     0.15E+00    0.5     0.00000891     -8808.2522164548 -2.70E-03

  *** SCF run converged in     5 steps ***


  Electronic density on regular grids:      -4096.0000022243       -0.0000022243
  Core density on regular grids:             4096.0000000016        0.0000000016
  Total charge density on r-space grids:       -0.0000022227
  Total charge density g-space grids:          -0.0000022227

  Overlap energy of the core charge distribution:               0.00000353692354
  Self energy of the core charge distribution:             -22442.43995950839599
  Core Hamiltonian energy:                                   6498.75944223232545
  Hartree energy:                                            9237.49747133522760
  Exchange-correlation energy:                              -2102.06917405085915

  Total energy:                                             -8808.25221645477905

 ENERGY| Total FORCE_EVAL ( QS ) energy [a.u.]:            -8808.253874106163494

 MD| ***************************************************************************
 MD| Step number                                                               9
 MD| Time [fs]                                                          4.500000
 MD| Conserved quantity [hartree]                            -0.880615635709E+04
 MD| ---------------------------------------------------------------------------
 MD|                                          Instantaneous             Averages
 MD| CPU time per MD step [s]                      6.025634            17.057780
 MD| Energy drift per atom [K]          -0.804529111540E+02  -0.731455743027E+02
 MD| Potential energy [hartree]         -0.880825387411E+04  -0.880862535828E+04
 MD| Kinetic energy [hartree]            0.209751701263E+01   0.246092851450E+01
 MD| Temperature [K]                             287.662409           337.502209
 MD| ***************************************************************************

 Number of electrons:                                                       4096
 Number of occupied orbitals:                                               2048
 Number of molecular orbitals:                                              2048

 Number of orbital functions:                                              20480
 Number of independent orbital functions:                                  20480

 Extrapolation method: PS Nth order
 Extrapolation order:  3


 SCF WAVEFUNCTION OPTIMIZATION

  ----------------------------------- OT ---------------------------------------
  Minimizer      : DIIS                : direct inversion
                                         in the iterative subspace
                                         using   7 DIIS vectors
                                         safer DIIS on
  Preconditioner : FULL_KINETIC        : inversion of T + eS
  Precond_solver : DEFAULT
  stepsize       :    0.15000000                  energy_gap     :    0.20000000
  eps_taylor     :   0.10000E-15                  max_taylor     :             4
  ----------------------------------- OT ---------------------------------------

  Step     Update method      Time    Convergence         Total energy    Change
  ------------------------------------------------------------------------------
     1 OT DIIS     0.15E+00    2.7     0.00004012     -8808.1037262141 -8.81E+03
     2 OT DIIS     0.15E+00    0.5     0.00003342     -8808.1129242880 -9.20E-03
     3 OT DIIS     0.15E+00    0.5     0.00002048     -8808.1296919521 -1.68E-02
     4 OT DIIS     0.15E+00    0.5     0.00001263     -8808.1379702771 -8.28E-03
     5 OT DIIS     0.15E+00    0.5     0.00001017     -8808.1402119202 -2.24E-03
     6 OT DIIS     0.15E+00    0.5     0.00000715     -8808.1425474616 -2.34E-03

  *** SCF run converged in     6 steps ***


  Electronic density on regular grids:      -4096.0000006753       -0.0000006753
  Core density on regular grids:             4096.0000000008        0.0000000008
  Total charge density on r-space grids:       -0.0000006746
  Total charge density g-space grids:          -0.0000006746

  Overlap energy of the core charge distribution:               0.00000340787871
  Self energy of the core charge distribution:             -22442.43995950839599
  Core Hamiltonian energy:                                   6495.52247844589147
  Hartree energy:                                            9239.94934786565136
  Exchange-correlation energy:                              -2101.17441767260971

  Total energy:                                             -8808.14254746158258

 ENERGY| Total FORCE_EVAL ( QS ) energy [a.u.]:            -8808.143948559971250

 MD| ***************************************************************************
 MD| Step number                                                              10
 MD| Time [fs]                                                          5.000000
 MD| Conserved quantity [hartree]                            -0.880615520950E+04
 MD| ---------------------------------------------------------------------------
 MD|                                          Instantaneous             Averages
 MD| CPU time per MD step [s]                      6.472268            15.999228
 MD| Energy drift per atom [K]          -0.802169865678E+02  -0.738527155292E+02
 MD| Potential energy [hartree]         -0.880814394856E+04  -0.880857721731E+04
 MD| Kinetic energy [hartree]            0.198873905751E+01   0.241370956880E+01
 MD| Temperature [K]                             272.744137           331.026401
 MD| ***************************************************************************

 -------------------------------------------------------------------------------
 -                                                                             -
 -                                DBCSR STATISTICS                             -
 -                                                                             -
 -------------------------------------------------------------------------------
 COUNTER                                    TOTAL       BLAS       SMM       ACC
 flops     9 x    32 x    32          13287555072     100.0%      0.0%      0.0%
 flops    22 x    32 x    32          16240345088     100.0%      0.0%      0.0%
 flops    64 x    64 x    64        1356135923712     100.0%      0.0%      0.0%
 flops   302 x    64 x    64        2827229331456     100.0%      0.0%      0.0%
 flops   338 x    64 x    64        3164250046464     100.0%      0.0%      0.0%
 flops     9 x     9 x    64        5648350040064     100.0%      0.0%      0.0%
 flops   302 x    64 x   640        6434733424640     100.0%      0.0%      0.0%
 flops   338 x    64 x   640        7201787740160     100.0%      0.0%      0.0%
 flops    64 x    64 x   640        7296075694080     100.0%      0.0%      0.0%
 flops     9 x    22 x    64        7855827369984     100.0%      0.0%      0.0%
 flops    22 x     9 x    64        7866447519744     100.0%      0.0%      0.0%
 flops   311 x    64 x    64        8734453530624     100.0%      0.0%      0.0%
 flops   329 x    64 x    64        9239984603136     100.0%      0.0%      0.0%
 flops    22 x    22 x    64       11004752822272     100.0%      0.0%      0.0%
 flops    32 x    64 x    64       13109313929216     100.0%      0.0%      0.0%
 flops   289 x    64 x    64       13527637032960     100.0%      0.0%      0.0%
 flops   351 x    64 x    64       16429759856640     100.0%      0.0%      0.0%
 flops   280 x    64 x    64       18348905594880     100.0%      0.0%      0.0%
 flops   311 x    64 x   640       19879491010560     100.0%      0.0%      0.0%
 flops   329 x    64 x   640       21030072483840     100.0%      0.0%      0.0%
 flops   360 x    64 x    64       23591450050560     100.0%      0.0%      0.0%
 flops     9 x    32 x     9       23722505551872     100.0%      0.0%      0.0%
 flops   289 x    64 x   640       30788707942400     100.0%      0.0%      0.0%
 flops    22 x    32 x     9       33153656684544     100.0%      0.0%      0.0%
 flops     9 x    32 x    22       33153656684544     100.0%      0.0%      0.0%
 flops   351 x    64 x   640       37393897881600     100.0%      0.0%      0.0%
 flops   280 x    64 x   640       41761846067200     100.0%      0.0%      0.0%
 flops    22 x    32 x    22       46115724689408     100.0%      0.0%      0.0%
 flops   360 x    64 x   640       53693802086400     100.0%      0.0%      0.0%
 flops    32 x    64 x   640       70528731709440     100.0%      0.0%      0.0%
 flops inhomo. stacks                           0       0.0%      0.0%      0.0%
 flops total                       574.888715E+12     100.0%      0.0%      0.0%
 flops max/rank                    570.336734E+09     100.0%      0.0%      0.0%
 matmuls inhomo. stacks                         0       0.0%      0.0%      0.0%
 matmuls total                        12767081600     100.0%      0.0%      0.0%
 number of processed stacks             238274624     100.0%      0.0%      0.0%
 average stack size                                    53.6       0.0       0.0
 marketing flops                     1.147134E+15
 -------------------------------------------------------------------------------
 # multiplications                           2431
 max memory usage/rank             297.189376E+06
 # max total images/rank                        1
 # max 3D layers                                1
 # MPI messages exchanged               154339328
 MPI messages size (bytes):
  total size                        46.347466E+12
  min size                           0.000000E+00
  max size                           3.276800E+06
  average size                     300.295906E+03
 MPI breakdown and total messages size (bytes):
             size <=      128             1036640                        0
       128 < size <=     8192                   0                        0
      8192 < size <=    32768            71180960            2332278915072
     32768 < size <=   131072                   0                        0
    131072 < size <=  4194304            82121728           44015231621664
   4194304 < size <= 16777216                   0                        0
  16777216 < size                               0                        0
 -------------------------------------------------------------------------------
 -                                                                             -
 -                      DBCSR MESSAGE PASSING PERFORMANCE                      -
 -                                                                             -
 -------------------------------------------------------------------------------
 ROUTINE             CALLS      AVE VOLUME [Bytes]
 MP_Bcast               31                     12.
 MP_Allreduce        12991                     67.
 MP_Alltoall          9270                1277756.
 MP_ISend           311124                 145655.
 MP_IRecv           311124                 145678.
 -------------------------------------------------------------------------------

 -------------------------------------------------------------------------------
 -                                                                             -
 -                                GRID STATISTICS                              -
 -                                                                             -
 -------------------------------------------------------------------------------
 LP    KERNEL             BACKEND                              COUNT     PERCENT
 1     collocate ortho    REF                              135745301      20.25%
 1     integrate ortho    REF                              130493488      19.47%
 2     integrate ortho    REF                               88995618      13.28%
 2     collocate ortho    REF                               84560451      12.61%
 0     collocate ortho    REF                               75171698      11.21%
 0     integrate ortho    REF                               68664071      10.24%
 3     integrate ortho    REF                               26282166       3.92%
 3     collocate ortho    REF                               20755016       3.10%
 0     collocate general  REF                               17301504       2.58%
 1     integrate general  REF                               17301504       2.58%
 4     integrate ortho    REF                                3293394       0.49%
 4     collocate ortho    REF                                1638196       0.24%
 5     integrate ortho    REF                                 141925       0.02%
 -------------------------------------------------------------------------------

 MEMORY| Estimated peak process memory [MiB]                                 284

 -------------------------------------------------------------------------------
 -                                                                             -
 -                         MESSAGE PASSING PERFORMANCE                         -
 -                                                                             -
 -------------------------------------------------------------------------------

 ROUTINE             CALLS      AVE VOLUME [Bytes]
 MP_Group                4
 MP_Bcast             4017                  57868.
 MP_Allreduce        11016                   1360.
 MP_Sync              1660
 MP_Alltoall          2222
 MP_ISendRecv       519684                   4104.
 MP_Wait            538864
 MP_comm_split          66
 MP_ISend            59202                  16547.
 MP_IRecv            59202                  16547.
 -------------------------------------------------------------------------------


 -------------------------------------------------------------------------------
 -                                                                             -
 -                           R E F E R E N C E S                               -
 -                                                                             -
 -------------------------------------------------------------------------------
 
 CP2K version 8.2, the CP2K developers group (2021).
 CP2K is freely available from https://www.cp2k.org/ .

 Kuehne,Thomas D.; Iannuzzi,Marcella; Del Ben,Mauro;
 Rybkin,Vladimir V.; Seewald,Patrick; Stein,Frederick; Laino,Teodoro;
 Khaliullin,Rustam Z.; Schuett,Ole; Schiffmann,Florian; Golze,Dorothea;
 Wilhelm,Jan; Chulkov,Sergey; Bani-Hashemian,Mohammad Hossein;
 Weber,Valery; Borstnik,Urban; Taillefumier,Mathieu;
 Jakobovits,Alice Shoshana; Lazzaro,Alfio; Pabst,Hans; Mueller,Tiziano;
 Schade,Robert; Guidon,Manuel; Andermatt,Samuel; Holmberg,Nico;
 Schenter,Gregory K.; Hehn,Anna; Bussy,Augustin; Belleflamme,Fabian;
 Tabacchi,Gloria; Gloess,Andreas; Lass,Michael; Bethune,Iain;
 Mundy,Christopher J.; Plessl,Christian; Watkins,Matt;
 VandeVondele,Joost; Krack,Matthias; Hutter,Juerg. 
 The Journal of Chemical Physics, 152 (19), (2020). 
 CP2K: An electronic structure and molecular dynamics software package -
 Quickstep: Efficient and accurate electronic structure calculations.
 https://doi.org/10.1063/5.0007045

 Schuett, Ole; Messmer, Peter; Hutter, Juerg; VandeVondele, Joost. 
 Electronic Structure Calculations on Graphics Processing Units, John
 Wiley & Sons, Ltd, 173-190 (2016). 
 GPU-Accelerated Sparse Matrix-Matrix Multiplication for
 Linear Scaling Density Functional Theory.
 https://doi.org/10.1002/9781118670712.ch8

 Borstnik, U; VandeVondele, J; Weber, V; Hutter, J. 
 PARALLEL COMPUTING, 40 (5-6), 47-58 (2014). 
 Sparse matrix multiplication: The distributed block-compressed sparse
 row library.
 https://doi.org/10.1016/j.parco.2014.03.012

 Hutter, J; Iannuzzi, M; Schiffmann, F; VandeVondele, J. 
 WIREs Comput Mol Sci., 4 (1), 15-25 (2014). 
 CP2K: atomistic simulations of condensed matter systems.
 https://doi.org/10.1002/wcms.1159

 Marek, A; Blum, V; Johanni, R; Havu, V; Lang, B; Auckenthaler, T;
 Heinecke, A; Bungartz, H; Lederer, H. 
 Journal of Physics: Condensed Matter, 26 (21), (2014). 
 The ELPA library: scalable parallel eigenvalue solutions for
 electronic structure
 theory and computational science.
 https://doi.org/10.1088/0953-8984/26/21/213201

 Krack, M. 
 THEORETICAL CHEMISTRY ACCOUNTS, 114 (1-3), 145-152 (2005). 
 Pseudopotentials for H to Kr optimized for gradient-corrected
 exchange-correlation functionals.
 https://doi.org/10.1007/s00214-005-0655-y

 VandeVondele, J; Krack, M; Mohamed, F; Parrinello, M; Chassaing, T;
 Hutter, J. COMPUTER PHYSICS COMMUNICATIONS, 167 (2), 103-128 (2005). 
 QUICKSTEP: Fast and accurate density functional calculations using a
 mixed Gaussian and plane waves approach.
 https://doi.org/10.1016/j.cpc.2004.12.014

 Frigo, M; Johnson, SG. 
 PROCEEDINGS OF THE IEEE, 93 (2), 216-231 (2005). 
 The design and implementation of FFTW3.
 https://doi.org/10.1109/JPROC.2004.840301

 VandeVondele, J; Hutter, J. 
 JOURNAL OF CHEMICAL PHYSICS, 118 (10), 4365-4369 (2003). 
 An efficient orbital transformation method for electronic structure
 calculations.
 https://doi.org/10.1063/1.1543154

 Hartwigsen, C; Goedecker, S; Hutter, J. 
 PHYSICAL REVIEW B, 58 (7), 3641-3662 (1998). 
 Relativistic separable dual-space Gaussian pseudopotentials from H to Rn.
 https://doi.org/10.1103/PhysRevB.58.3641

 Lippert, G; Hutter, J; Parrinello, M. 
 MOLECULAR PHYSICS, 92 (3), 477-487 (1997). 
 A hybrid Gaussian and plane wave density functional scheme.
 https://doi.org/10.1080/002689797170220

 Goedecker, S; Teter, M; Hutter, J. 
 PHYSICAL REVIEW B, 54 (3), 1703-1710 (1996). 
 Separable dual-space Gaussian pseudopotentials.
 https://doi.org/10.1103/PhysRevB.54.1703


 -------------------------------------------------------------------------------
 -                                                                             -
 -                                T I M I N G                                  -
 -                                                                             -
 -------------------------------------------------------------------------------
 SUBROUTINE                       CALLS  ASD         SELF TIME        TOTAL TIME
                                MAXIMUM       AVERAGE  MAXIMUM  AVERAGE  MAXIMUM
 CP2K                                 1  1.0    0.131    0.132  160.253  160.261
 qs_mol_dyn_low                       1  2.0    0.004    0.004  160.004  160.027
 qs_forces                           11  3.9    0.004    0.004  159.666  159.666
 qs_energies                         11  4.9    0.001    0.001  158.177  158.185
 scf_env_do_scf                      11  5.9    0.001    0.001  125.576  125.577
 scf_env_do_scf_inner_loop          116  6.6    0.003    0.008   79.365   79.365
 velocity_verlet                     10  3.0    0.002    0.002   73.934   73.935
 qs_scf_new_mos                     116  7.6    0.001    0.001   63.761   63.873
 qs_scf_loop_do_ot                  116  8.6    0.001    0.001   63.760   63.873
 ot_scf_mini                        116  9.6    0.003    0.004   60.034   60.147
 dbcsr_multiply_generic            2431 12.5    0.114    0.124   53.062   53.610
 multiply_cannon                   2431 13.5    0.302    0.333   45.222   46.740
 init_scf_loop                       11  6.9    0.000    0.001   46.152   46.154
 multiply_cannon_loop              2431 14.5    0.336    0.381   44.042   44.840
 prepare_preconditioner              11  7.9    0.000    0.000   44.619   44.629
 make_preconditioner                 11  8.9    0.000    0.000   44.619   44.629
 make_full_inverse_cholesky          11  9.9    0.000    0.001   40.911   40.933
 ot_mini                            116 10.6    0.001    0.002   31.353   31.436
 mp_waitall_1                   1185852 15.4   21.864   28.816   21.864   28.816
 multiply_cannon_multrec          77792 15.5   21.533   23.634   21.540   23.641
 mp_alltoall_d11v                  2299 14.0   22.766   23.001   22.766   23.001
 dbcsr_complete_redistribute        361 12.5    0.124    0.136   22.449   22.616
 qs_ot_get_p                        127 10.4    0.001    0.001   21.401   21.504
 qs_energies_init_hamiltonians       11  5.9    0.000    0.001   20.461   20.461
 qs_env_update_s_mstruct             11  6.9    0.000    0.000   20.007   20.149
 qs_ot_get_derivative               116 11.6    0.001    0.001   19.417   19.515
 copy_dbcsr_to_fm                   169 11.5    0.003    0.003   18.756   18.790
 qs_create_task_list                 11  7.9    0.000    0.000   17.946   18.145
 generate_qs_task_list               11  8.9    0.022    0.044   17.946   18.145
 distribute_tasks                    11  9.9    0.007    0.008   17.922   18.123
 transfer_dbcsr_to_fm                11 10.9    0.000    0.000   18.075   18.091
 create_local_tasks                  11 10.9    0.002    0.003   17.655   17.795
 mp_alltoall_l11v                    11 11.9   17.651   17.791   17.651   17.791
 qs_ot_p2m_diag                      66 11.2    0.016    0.021   16.746   16.754
 cp_dbcsr_syevd                      66 12.2    0.005    0.006   16.072   16.087
 multiply_cannon_metrocomm1       77792 15.5    0.146    0.163   12.830   15.890
 cp_fm_diag_elpa                     66 13.2    0.000    0.001   15.779   15.786
 cp_fm_cholesky_invert               11 10.9   15.672   15.676   15.672   15.676
 cp_fm_redistribute_end              66 14.2   15.033   15.639   15.098   15.643
 cp_fm_diag_elpa_base                66 14.2    0.529   15.084    0.535   15.300
 qs_rho_update_rho                  127  7.7    0.001    0.001   13.429   13.450
 calculate_rho_elec                 127  8.7    0.011    0.012   13.428   13.449
 apply_preconditioner_dbcsr         127 12.6    0.000    0.000   11.780   12.274
 apply_single                       127 13.6    0.000    0.000   11.779   12.274
 ot_diis_step                       116 11.6    0.007    0.010   11.806   11.807
 density_rs2pw                      127  9.7    0.004    0.006   10.262   11.224
 init_scf_run                        11  5.9    0.000    0.001   10.998   11.000
 scf_env_initial_rho_setup           11  6.9    0.000    0.000   10.998   10.999
 rebuild_ks_matrix                  127  8.3    0.001    0.001   10.663   10.766
 qs_ks_build_kohn_sham_matrix       127  9.3    0.014    0.017   10.662   10.766
 qs_ks_update_qs_env                127  7.6    0.002    0.004    9.586    9.684
 rs_pw_transfer                    1038 11.9    0.011    0.016    7.772    8.734
 multiply_cannon_metrocomm3       77792 15.5    0.135    0.149    4.706    8.229
 pw_transfer                       1535 11.6    0.080    0.095    7.525    7.591
 mp_irecv_dv                     164322 16.4    3.967    7.549    3.967    7.549
 fft_wrap_pw1pw2                   1281 12.7    0.004    0.005    7.434    7.498
 cp_fm_cholesky_decompose            22 10.9    7.204    7.219    7.204    7.219
 qs_ot_get_derivative_diag           62 12.2    0.001    0.001    7.152    7.209
 multiply_cannon_metrocomm4       75361 15.5    0.141    0.158    3.312    6.665
 make_m2s                          4862 13.5    0.093    0.103    5.383    5.592
 fft3d_ps                           762 15.0    0.029    0.049    5.423    5.451
 mp_sync                           1660 16.9    2.825    5.275    2.825    5.275
 xz_to_yz                           381 14.7    0.027    0.053    5.090    5.102
 sum_up_and_integrate               127 10.3    0.003    0.005    5.078    5.086
 integrate_v_rspace                 127 11.3    0.003    0.004    5.074    5.083
 make_images                       4862 14.5    0.398    0.581    4.829    5.039
 wfi_extrapolate                     11  7.9    0.001    0.002    4.866    4.866
 qs_ot_get_derivative_taylor         54 13.0    0.001    0.001    4.733    4.778
 calculate_dm_sparse                127  9.5    0.000    0.000    4.163    4.294
 copy_fm_to_dbcsr                   192 11.4    0.001    0.001    4.101    4.245
 mp_isend_zv                      53848 17.0    1.918    4.148    1.918    4.148
 transfer_fm_to_dbcsr                11  9.9    0.000    0.000    3.706    3.826
 multiply_cannon_metrocomm2       75361 15.5    0.148    0.166    1.318    3.366
 mp_waitany                       14244 13.9    1.909    3.208    1.909    3.208
 -------------------------------------------------------------------------------

 The number of warnings for this run is : 1
 
 -------------------------------------------------------------------------------
  **** **** ******  **  PROGRAM ENDED AT                 2022-01-20 10:44:38.953
 ***** ** ***  *** **   PROGRAM RAN ON                                 nid005755
 **    ****   ******    PROGRAM RAN BY                                    hjudge
 ***** **    ** ** **   PROGRAM PROCESS ID                                 92722
  **** **  *******  **  PROGRAM STOPPED IN /mnt/lustre/a2fs-work2/work/z19/z19/h
                                           judge/CUG/archer2/CPU/CP2K/H2O-512/16
                                           NODES/128CPN/2THREADS
