 DBCSR| CPU Multiplication driver                                           BLAS
 DBCSR| Multrec recursion limit                                              512
 DBCSR| Multiplication stack size                                           1000
 DBCSR| Maximum elements for images                                    UNLIMITED
 DBCSR| Multiplicative factor virtual images                                   1
 DBCSR| Use multiplication densification                                       T
 DBCSR| Multiplication size stacks                                             3
 DBCSR| Use memory pool for CPU allocation                                     F
 DBCSR| Number of 3D layers                                               SINGLE
 DBCSR| Use MPI memory allocation                                              F
 DBCSR| Use RMA algorithm                                                      F
 DBCSR| Use Communication thread                                               T
 DBCSR| Communication thread load                                             75
 DBCSR| MPI: My node id                                                        0
 DBCSR| MPI: Number of nodes                                                1024
 DBCSR| OMP: Current number of threads                                         4
 DBCSR| OMP: Max number of threads                                             4
 DBCSR| Split modifier for TAS multiplication algorithm                  1.0E+00


  **** **** ******  **  PROGRAM STARTED AT               2022-01-20 10:45:22.704
 ***** ** ***  *** **   PROGRAM STARTED ON                             nid003678
 **    ****   ******    PROGRAM STARTED BY                                hjudge
 ***** **    ** ** **   PROGRAM PROCESS ID                                108665
  **** **  *******  **  PROGRAM STARTED IN /mnt/lustre/a2fs-work2/work/z19/z19/h
                                           judge/CUG/archer2/CPU/CP2K/H2O-512/32
                                           NODES/128CPN/4THREADS

 CP2K| version string:                                          CP2K version 8.2
 CP2K| source code revision number:                                  git:310b7ab
 CP2K| cp2kflags: omp libint fftw3 libxc elpa parallel mpi3 scalapack plumed2   
 CP2K| is freely available from                            https://www.cp2k.org/
 CP2K| Program compiled at                          Thu Dec  2 10:30:45 GMT 2021
 CP2K| Program compiled on                                                  ln02
 CP2K| Program compiled for                                              ARCHER2
 CP2K| Data directory path         /work/y07/shared/apps/core/cp2k/cp2k-8.2/data
 CP2K| Input file name                                               H2O-512.inp

 GLOBAL| Force Environment number                                              1
 GLOBAL| Basis set file name                                      GTH_BASIS_SETS
 GLOBAL| Potential file name                                           POTENTIAL
 GLOBAL| MM Potential file name                                     MM_POTENTIAL
 GLOBAL| Coordinate file name                                      __STD_INPUT__
 GLOBAL| Method name                                                        CP2K
 GLOBAL| Project name                                                    H2O-512
 GLOBAL| Run type                                                             MD
 GLOBAL| FFT library                                                       FFTW3
 GLOBAL| Diagonalization library                                            ELPA
 GLOBAL| Minimum number of eigenvectors for ELPA usage                        16
 GLOBAL| Orthonormality check for eigenvectors                          DISABLED
 GLOBAL| Matrix multiplication library                                    SCALAP
 GLOBAL| All-to-all communication in single precision                          F
 GLOBAL| FFTs using library dependent lengths                                  F
 GLOBAL| Grid backend                                                       AUTO
 GLOBAL| Global print level                                                  LOW
 GLOBAL| MPI I/O enabled                                                       T
 GLOBAL| Total number of message passing processes                          1024
 GLOBAL| Number of threads for this process                                    4
 GLOBAL| This output is from process                                           0
 GLOBAL| CPU model name                          AMD EPYC 7742 64-Core Processor
 GLOBAL| CPUID                                                              1002

 MEMORY| system memory details [Kb]
 MEMORY|                        rank 0           min           max       average
 MEMORY| MemTotal            263528088     263528084     263528088     263528087
 MEMORY| MemFree             249672580     249224196     250948196     250020609
 MEMORY| Buffers                 24300         16272         26964         19334
 MEMORY| Cached                 921404        529464       1488476        935425
 MEMORY| Slab                  1584552       1498808       1625420       1566234
 MEMORY| SReclaimable            92592         79276        104904         93839
 MEMORY| MemLikelyFree       250710876     250619728     251625460     251069208


 GENERATE|  Preliminary Number of Bonds generated:                             0
 GENERATE|  Achieved consistency in connectivity generation.

 *******************************************************************************
 *******************************************************************************
 **                                                                           **
 **     #####                         ##              ##                      **
 **    ##   ##            ##          ##              ##                      **
 **   ##     ##                       ##            ######                    **
 **   ##     ##  ##   ##  ##   #####  ##  ##   ####   ##    #####    #####    **
 **   ##     ##  ##   ##  ##  ##      ## ##   ##      ##   ##   ##  ##   ##   **
 **   ##  ## ##  ##   ##  ##  ##      ####     ###    ##   ######   ######    **
 **    ##  ###   ##   ##  ##  ##      ## ##      ##   ##   ##       ##        **
 **     #######   #####   ##   #####  ##  ##  ####    ##    #####   ##        **
 **           ##                                                    ##        **
 **                                                                           **
 **                                                ... make the atoms dance   **
 **                                                                           **
 **            Copyright (C) by CP2K developers group (2000-2021)             **
 **                      J. Chem. Phys. 152, 194103 (2020)                    **
 **                                                                           **
 *******************************************************************************


 TOTAL NUMBERS AND MAXIMUM NUMBERS

  Total number of            - Atomic kinds:                                   2
                             - Atoms:                                       1536
                             - Shell sets:                                  3072
                             - Shells:                                      9216
                             - Primitive Cartesian functions:              10752
                             - Cartesian basis functions:                  21504
                             - Spherical basis functions:                  20480

  Maximum angular momentum of- Orbital basis functions:                        2
                             - Local part of the GTH pseudopotential:          2
                             - Non-local part of the GTH pseudopotential:      0


 SCF PARAMETERS         Density guess:                                    ATOMIC
                        --------------------------------------------------------
                        max_scf:                                              50
                        max_scf_history:                                       0
                        max_diis:                                              4
                        --------------------------------------------------------
                        eps_scf:                                        1.00E-05
                        eps_scf_history:                                0.00E+00
                        eps_diis:                                       1.00E-01
                        eps_eigval:                                     1.00E-05
                        --------------------------------------------------------
                        level_shift [a.u.]:                                 0.00
                        --------------------------------------------------------
                        No outer SCF

 MD_PAR| Molecular dynamics protocol (MD input parameters)
 MD_PAR| Ensemble type                                                       NVE
 MD_PAR| Number of time steps                                                 10
 MD_PAR| Time step [fs]                                                 0.500000
 MD_PAR| Temperature [K]                                              300.000000
 MD_PAR| Temperature tolerance [K]                                      0.000000
 MD_PAR| Print MD information every                                    1 step(s)
 MD_PAR| File type   Print frequency [steps]                          File names
 MD_PAR| Coordinates          1                                H2O-512-pos-1.xyz
 MD_PAR| Velocities           1                                H2O-512-vel-1.xyz
 MD_PAR| Energies             1                                   H2O-512-1.ener
 MD_PAR| Dump                20                                H2O-512-1.restart

 ROT| Rotational analysis information
 ROT| Principal axes and moments of inertia [a.u.]
 ROT|                           1                   2                   3
 ROT| Eigenvalues      6.12011925703E+09   6.17734003456E+09   6.32378668800E+09
 ROT|      x              0.229702356692      0.883899672739      0.407379670409
 ROT|      y              0.711719446246      0.132949289019     -0.689768016354
 ROT|      z              0.663846561462     -0.448381372362      0.598549820611
 ROT| Number of rotovibrational vectors                                        6

 DOF| Calculation of degrees of freedom
 DOF| Number of atoms                                                       1536
 DOF| Number of intramolecular constraints                                     0
 DOF| Number of intermolecular constraints                                     0
 DOF| Invariants (translations + rotations)                                    3
 DOF| Degrees of freedom                                                    4605

 DOF| Restraints information
 DOF| Number of intramolecular restraints                                      0
 DOF| Number of intermolecular restraints                                      0

 MD_VEL| Velocities initialization
 MD_VEL| Initial temperature [K]                                      300.000000
 MD_VEL| COM velocity             0.0000000000    -0.0000000000     0.0000000000

 Number of electrons:                                                       4096
 Number of occupied orbitals:                                               2048
 Number of molecular orbitals:                                              2048

 Number of orbital functions:                                              20480
 Number of independent orbital functions:                                  20480

 Extrapolation method: initial_guess


 SCF WAVEFUNCTION OPTIMIZATION

  ----------------------------------- OT ---------------------------------------
  Minimizer      : DIIS                : direct inversion
                                         in the iterative subspace
                                         using   7 DIIS vectors
                                         safer DIIS on
  Preconditioner : FULL_KINETIC        : inversion of T + eS
  Precond_solver : DEFAULT
  stepsize       :    0.15000000                  energy_gap     :    0.20000000
  eps_taylor     :   0.10000E-15                  max_taylor     :             4
  ----------------------------------- OT ---------------------------------------

  Step     Update method      Time    Convergence         Total energy    Change
  ------------------------------------------------------------------------------
     1 OT DIIS     0.15E+00   15.2     0.00467324     -8480.4728425690 -8.48E+03
     2 OT DIIS     0.15E+00    0.6     0.00318266     -8587.4488310143 -1.07E+02
     3 OT DIIS     0.15E+00    0.6     0.00347210     -8644.7931966768 -5.73E+01
     4 OT DIIS     0.15E+00    0.6     0.00204380     -8678.2157923836 -3.34E+01
     5 OT DIIS     0.15E+00    0.6     0.00148292     -8717.4624183879 -3.92E+01
     6 OT DIIS     0.15E+00    0.6     0.00119954     -8738.7795043572 -2.13E+01
     7 OT DIIS     0.15E+00    0.6     0.00099038     -8755.0185947301 -1.62E+01
     8 OT DIIS     0.15E+00    0.6     0.00079894     -8767.5347825454 -1.25E+01
     9 OT DIIS     0.15E+00    0.6     0.00061581     -8780.1862563834 -1.27E+01
    10 OT DIIS     0.15E+00    0.6     0.00048147     -8788.6147471043 -8.43E+00
    11 OT DIIS     0.15E+00    0.6     0.00038278     -8794.1215228889 -5.51E+00
    12 OT DIIS     0.15E+00    0.6     0.00031960     -8797.5363589594 -3.41E+00
    13 OT DIIS     0.15E+00    0.6     0.00026435     -8799.9344030908 -2.40E+00
    14 OT DIIS     0.15E+00    0.6     0.00023004     -8801.7089305035 -1.77E+00
    15 OT DIIS     0.15E+00    0.6     0.00019592     -8803.0697888564 -1.36E+00
    16 OT DIIS     0.15E+00    0.6     0.00016642     -8804.2000843411 -1.13E+00
    17 OT DIIS     0.15E+00    0.6     0.00014164     -8805.0506655806 -8.51E-01
    18 OT DIIS     0.15E+00    0.6     0.00012638     -8805.6725421207 -6.22E-01
    19 OT DIIS     0.15E+00    0.6     0.00010717     -8806.2171485645 -5.45E-01
    20 OT DIIS     0.15E+00    0.6     0.00009868     -8806.5290018963 -3.12E-01
    21 OT DIIS     0.15E+00    0.6     0.00008484     -8806.8772741195 -3.48E-01
    22 OT DIIS     0.15E+00    0.6     0.00007717     -8807.0943334427 -2.17E-01
    23 OT DIIS     0.15E+00    0.6     0.00006815     -8807.2974129499 -2.03E-01
    24 OT DIIS     0.15E+00    0.6     0.00006019     -8807.4529078233 -1.55E-01
    25 OT DIIS     0.15E+00    0.6     0.00005010     -8807.5989834234 -1.46E-01
    26 OT DIIS     0.15E+00    0.6     0.00004000     -8807.6989662228 -1.00E-01
    27 OT DIIS     0.15E+00    0.6     0.00003462     -8807.7827122402 -8.37E-02
    28 OT DIIS     0.15E+00    0.6     0.00003071     -8807.7824932500  2.19E-04
    29 OT DIIS     0.15E+00    0.6     0.00002690     -8807.8200993195 -3.76E-02
    30 OT DIIS     0.15E+00    0.6     0.00002500     -8807.8399634016 -1.99E-02
    31 OT DIIS     0.15E+00    0.6     0.00002395     -8807.8566460922 -1.67E-02
    32 OT DIIS     0.15E+00    0.6     0.00002328     -8807.8682689643 -1.16E-02
    33 OT DIIS     0.15E+00    0.6     0.00002304     -8807.8827275965 -1.45E-02
    34 OT DIIS     0.15E+00    0.6     0.00002300     -8807.8854890296 -2.76E-03
    35 OT SD       0.15E+00    0.6     0.00002301     -8807.8907467596 -5.26E-03
    36 OT SD       0.15E+00    0.6     0.00002308     -8807.8940817096 -3.33E-03
    37 OT SD       0.15E+00    0.6     0.00002318     -8807.8974407043 -3.36E-03
    38 OT SD       0.15E+00    0.6     0.00002329     -8807.9008284718 -3.39E-03
    39 OT SD       0.15E+00    0.6     0.00002341     -8807.9042491083 -3.42E-03
    40 OT SD       0.15E+00    0.6     0.00002354     -8807.9077063659 -3.46E-03
    41 OT SD       0.15E+00    0.6     0.00002369     -8807.9112037365 -3.50E-03
    42 OT SD       0.15E+00    0.6     0.00002384     -8807.9147444866 -3.54E-03
    43 OT SD       0.15E+00    0.6     0.00002400     -8807.9183316715 -3.59E-03
    44 OT SD       0.15E+00    0.6     0.00002417     -8807.9219681410 -3.64E-03
    45 OT DIIS     0.15E+00    0.6     0.00002435     -8807.9256565391 -3.69E-03
    46 OT DIIS     0.15E+00    0.6     0.00004964     -8807.9134343479  1.22E-02
    47 OT SD       0.15E+00    0.6     0.00005091     -8807.9142762757 -8.42E-04
    48 OT SD       0.15E+00    0.6     0.00004016     -8807.9285475957 -1.43E-02
    49 OT SD       0.15E+00    0.6     0.00003559     -8807.9380321161 -9.48E-03
    50 OT SD       0.15E+00    0.6     0.00003336     -8807.9457132812 -7.68E-03

  Leaving inner SCF loop after reaching    50 steps.


  Electronic density on regular grids:      -4096.0000074755       -0.0000074755
  Core density on regular grids:             4095.9999999927       -0.0000000073
  Total charge density on r-space grids:       -0.0000074827
  Total charge density g-space grids:          -0.0000074827

  Overlap energy of the core charge distribution:               0.00004500798551
  Self energy of the core charge distribution:             -22442.43995950839599
  Core Hamiltonian energy:                                   6603.78904460788362
  Hartree energy:                                            9161.23623434301771
  Exchange-correlation energy:                              -2130.53107773165493

  Total energy:                                             -8807.94571328116399

 *** WARNING in qs_scf.F:576 :: SCF run NOT converged ***


 ENERGY| Total FORCE_EVAL ( QS ) energy [a.u.]:            -8807.952578088974406

 MD_INI| MD initialization
 MD_INI| Potential energy [hartree]                          -0.880795257809E+04
 MD_INI| Kinetic energy [hartree]                             0.218747769838E+01
 MD_INI| Temperature [K]                                              300.000000
 MD_INI| Cell volume [bohr^3]                                 1.037187315243E+05
 MD_INI| Cell volume [ang^3]                                  1.536953010365E+04
 MD_INI| Cell lengths [bohr]      4.69842608E+01  4.69842608E+01  4.69842608E+01
 MD_INI| Cell lengths [ang]       2.48630000E+01  2.48630000E+01  2.48630000E+01
 MD_INI| Cell angles [deg]        9.00000000E+01  9.00000000E+01  9.00000000E+01

 Number of electrons:                                                       4096
 Number of occupied orbitals:                                               2048
 Number of molecular orbitals:                                              2048

 Number of orbital functions:                                              20480
 Number of independent orbital functions:                                  20480

 Extrapolation method: PS Nth order
 Extrapolation order:  0


 SCF WAVEFUNCTION OPTIMIZATION

  ----------------------------------- OT ---------------------------------------
  Minimizer      : DIIS                : direct inversion
                                         in the iterative subspace
                                         using   7 DIIS vectors
                                         safer DIIS on
  Preconditioner : FULL_KINETIC        : inversion of T + eS
  Precond_solver : DEFAULT
  stepsize       :    0.15000000                  energy_gap     :    0.20000000
  eps_taylor     :   0.10000E-15                  max_taylor     :             4
  ----------------------------------- OT ---------------------------------------

  Step     Update method      Time    Convergence         Total energy    Change
  ------------------------------------------------------------------------------
     1 OT DIIS     0.15E+00    1.9     0.00010167     -8807.9546268092 -8.81E+03
     2 OT DIIS     0.15E+00    0.4     0.00007400     -8808.0093770325 -5.48E-02
     3 OT DIIS     0.15E+00    0.4     0.00005493     -8808.0647679891 -5.54E-02
     4 OT DIIS     0.15E+00    0.4     0.00004934     -8808.1021861085 -3.74E-02
     5 OT DIIS     0.15E+00    0.6     0.00004590     -8808.1451208698 -4.29E-02
     6 OT DIIS     0.15E+00    0.6     0.00004348     -8808.1873220643 -4.22E-02
     7 OT DIIS     0.15E+00    0.6     0.00003910     -8808.2477036426 -6.04E-02
     8 OT DIIS     0.15E+00    0.6     0.00002828     -8808.3274904388 -7.98E-02
     9 OT DIIS     0.15E+00    0.6     0.00002025     -8808.3586945655 -3.12E-02
    10 OT DIIS     0.15E+00    0.6     0.00001287     -8808.3785440119 -1.98E-02
    11 OT DIIS     0.15E+00    0.6     0.00001026     -8808.3792699908 -7.26E-04
    12 OT DIIS     0.15E+00    0.6     0.00000704     -8808.3828071793 -3.54E-03

  *** SCF run converged in    12 steps ***


  Electronic density on regular grids:      -4096.0000079114       -0.0000079114
  Core density on regular grids:             4095.9999999916       -0.0000000084
  Total charge density on r-space grids:       -0.0000079198
  Total charge density g-space grids:          -0.0000079198

  Overlap energy of the core charge distribution:               0.00004378132452
  Self energy of the core charge distribution:             -22442.43995950839599
  Core Hamiltonian energy:                                   6601.18543091260108
  Hartree energy:                                            9162.93985309197342
  Exchange-correlation energy:                              -2130.06817545681679

  Total energy:                                             -8808.38280717931411

 ENERGY| Total FORCE_EVAL ( QS ) energy [a.u.]:            -8808.383483637280733

 MD| ***************************************************************************
 MD| Step number                                                               1
 MD| Time [fs]                                                          0.500000
 MD| Conserved quantity [hartree]                            -0.880615757268E+04
 MD| ---------------------------------------------------------------------------
 MD|                                          Instantaneous             Averages
 MD| CPU time per MD step [s]                     67.578174            67.578174
 MD| Energy drift per atom [K]          -0.806854153463E+02   0.000000000000E+00
 MD| Potential energy [hartree]         -0.880838348364E+04  -0.880838348364E+04
 MD| Kinetic energy [hartree]            0.222591096053E+01   0.222591096053E+01
 MD| Temperature [K]                             305.270901           305.270901
 MD| ***************************************************************************

 Number of electrons:                                                       4096
 Number of occupied orbitals:                                               2048
 Number of molecular orbitals:                                              2048

 Number of orbital functions:                                              20480
 Number of independent orbital functions:                                  20480

 Extrapolation method: PS Nth order
 Extrapolation order:  1


 SCF WAVEFUNCTION OPTIMIZATION

  ----------------------------------- OT ---------------------------------------
  Minimizer      : DIIS                : direct inversion
                                         in the iterative subspace
                                         using   7 DIIS vectors
                                         safer DIIS on
  Preconditioner : FULL_KINETIC        : inversion of T + eS
  Precond_solver : DEFAULT
  stepsize       :    0.15000000                  energy_gap     :    0.20000000
  eps_taylor     :   0.10000E-15                  max_taylor     :             4
  ----------------------------------- OT ---------------------------------------

  Step     Update method      Time    Convergence         Total energy    Change
  ------------------------------------------------------------------------------
     1 OT DIIS     0.15E+00    1.9     0.00008001     -8808.4313072353 -8.81E+03
     2 OT DIIS     0.15E+00    0.4     0.00005271     -8808.4637428844 -3.24E-02
     3 OT DIIS     0.15E+00    0.4     0.00003321     -8808.4886489409 -2.49E-02
     4 OT DIIS     0.15E+00    0.4     0.00002251     -8808.5029448214 -1.43E-02
     5 OT DIIS     0.15E+00    0.4     0.00001407     -8808.5119287046 -8.98E-03
     6 OT DIIS     0.15E+00    0.4     0.00000837     -8808.5159226074 -3.99E-03

  *** SCF run converged in     6 steps ***


  Electronic density on regular grids:      -4096.0000084065       -0.0000084065
  Core density on regular grids:             4095.9999999941       -0.0000000059
  Total charge density on r-space grids:       -0.0000084124
  Total charge density g-space grids:          -0.0000084124

  Overlap energy of the core charge distribution:               0.00003948980211
  Self energy of the core charge distribution:             -22442.43995950839599
  Core Hamiltonian energy:                                   6592.75633355833270
  Hartree energy:                                            9168.97934887395604
  Exchange-correlation energy:                              -2127.81168502112178

  Total energy:                                             -8808.51592260742837

 ENERGY| Total FORCE_EVAL ( QS ) energy [a.u.]:            -8808.517234261142221

 MD| ***************************************************************************
 MD| Step number                                                               2
 MD| Time [fs]                                                          1.000000
 MD| Conserved quantity [hartree]                            -0.880616181846E+04
 MD| ---------------------------------------------------------------------------
 MD|                                          Instantaneous             Averages
 MD| CPU time per MD step [s]                      4.946043            36.262109
 MD| Energy drift per atom [K]          -0.815582747555E+02  -0.407791373777E+02
 MD| Potential energy [hartree]         -0.880851723426E+04  -0.880845035895E+04
 MD| Kinetic energy [hartree]            0.235541579689E+01   0.229066337871E+01
 MD| Temperature [K]                             323.031745           314.151323
 MD| ***************************************************************************

 Number of electrons:                                                       4096
 Number of occupied orbitals:                                               2048
 Number of molecular orbitals:                                              2048

 Number of orbital functions:                                              20480
 Number of independent orbital functions:                                  20480

 Extrapolation method: PS Nth order
 Extrapolation order:  2


 SCF WAVEFUNCTION OPTIMIZATION

  ----------------------------------- OT ---------------------------------------
  Minimizer      : DIIS                : direct inversion
                                         in the iterative subspace
                                         using   7 DIIS vectors
                                         safer DIIS on
  Preconditioner : FULL_KINETIC        : inversion of T + eS
  Precond_solver : DEFAULT
  stepsize       :    0.15000000                  energy_gap     :    0.20000000
  eps_taylor     :   0.10000E-15                  max_taylor     :             4
  ----------------------------------- OT ---------------------------------------

  Step     Update method      Time    Convergence         Total energy    Change
  ------------------------------------------------------------------------------
     1 OT DIIS     0.15E+00    1.9     0.00008986     -8808.3717658584 -8.81E+03
     2 OT DIIS     0.15E+00    0.4     0.00007426     -8808.4174484803 -4.57E-02
     3 OT DIIS     0.15E+00    0.4     0.00005875     -8808.4861980144 -6.87E-02
     4 OT DIIS     0.15E+00    0.4     0.00004979     -8808.5436765756 -5.75E-02
     5 OT DIIS     0.15E+00    0.4     0.00004006     -8808.6033811737 -5.97E-02
     6 OT DIIS     0.15E+00    0.6     0.00002840     -8808.6545524884 -5.12E-02
     7 OT DIIS     0.15E+00    0.6     0.00001854     -8808.6820971277 -2.75E-02
     8 OT DIIS     0.15E+00    0.6     0.00001252     -8808.6920683811 -9.97E-03
     9 OT DIIS     0.15E+00    0.6     0.00000891     -8808.6959102582 -3.84E-03

  *** SCF run converged in     9 steps ***


  Electronic density on regular grids:      -4096.0000081507       -0.0000081507
  Core density on regular grids:             4095.9999999985       -0.0000000015
  Total charge density on r-space grids:       -0.0000081522
  Total charge density g-space grids:          -0.0000081522

  Overlap energy of the core charge distribution:               0.00003222728002
  Self energy of the core charge distribution:             -22442.43995950839599
  Core Hamiltonian energy:                                   6579.97333102868652
  Hartree energy:                                            9178.11110446750899
  Exchange-correlation energy:                              -2124.34041847326398

  Total energy:                                             -8808.69591025818590

 ENERGY| Total FORCE_EVAL ( QS ) energy [a.u.]:            -8808.697758155736665

 MD| ***************************************************************************
 MD| Step number                                                               3
 MD| Time [fs]                                                          1.500000
 MD| Conserved quantity [hartree]                            -0.880616479812E+04
 MD| ---------------------------------------------------------------------------
 MD|                                          Instantaneous             Averages
 MD| CPU time per MD step [s]                      6.893765            26.472661
 MD| Energy drift per atom [K]          -0.821708397294E+02  -0.545763714950E+02
 MD| Potential energy [hartree]         -0.880869775816E+04  -0.880853282535E+04
 MD| Kinetic energy [hartree]            0.253296003556E+01   0.237142893099E+01
 MD| Temperature [K]                             347.380918           325.227855
 MD| ***************************************************************************

 Number of electrons:                                                       4096
 Number of occupied orbitals:                                               2048
 Number of molecular orbitals:                                              2048

 Number of orbital functions:                                              20480
 Number of independent orbital functions:                                  20480

 Extrapolation method: PS Nth order
 Extrapolation order:  3


 SCF WAVEFUNCTION OPTIMIZATION

  ----------------------------------- OT ---------------------------------------
  Minimizer      : DIIS                : direct inversion
                                         in the iterative subspace
                                         using   7 DIIS vectors
                                         safer DIIS on
  Preconditioner : FULL_KINETIC        : inversion of T + eS
  Precond_solver : DEFAULT
  stepsize       :    0.15000000                  energy_gap     :    0.20000000
  eps_taylor     :   0.10000E-15                  max_taylor     :             4
  ----------------------------------- OT ---------------------------------------

  Step     Update method      Time    Convergence         Total energy    Change
  ------------------------------------------------------------------------------
     1 OT DIIS     0.15E+00    1.9     0.00008300     -8808.7600998127 -8.81E+03
     2 OT DIIS     0.15E+00    0.4     0.00005686     -8808.7956177702 -3.55E-02
     3 OT DIIS     0.15E+00    0.4     0.00003614     -8808.8258127927 -3.02E-02
     4 OT DIIS     0.15E+00    0.4     0.00002270     -8808.8440338405 -1.82E-02
     5 OT DIIS     0.15E+00    0.4     0.00001489     -8808.8523327189 -8.30E-03
     6 OT DIIS     0.15E+00    0.4     0.00000969     -8808.8563576229 -4.02E-03

  *** SCF run converged in     6 steps ***


  Electronic density on regular grids:      -4096.0000085822       -0.0000085822
  Core density on regular grids:             4096.0000000009        0.0000000009
  Total charge density on r-space grids:       -0.0000085814
  Total charge density g-space grids:          -0.0000085814

  Overlap energy of the core charge distribution:               0.00002346615637
  Self energy of the core charge distribution:             -22442.43995950839599
  Core Hamiltonian energy:                                   6564.27159050591035
  Hartree energy:                                            9189.38285773184907
  Exchange-correlation energy:                              -2120.07086981838211

  Total energy:                                             -8808.85635762286256

 ENERGY| Total FORCE_EVAL ( QS ) energy [a.u.]:            -8808.858123731532032

 MD| ***************************************************************************
 MD| Step number                                                               4
 MD| Time [fs]                                                          2.000000
 MD| Conserved quantity [hartree]                            -0.880616980118E+04
 MD| ---------------------------------------------------------------------------
 MD|                                          Instantaneous             Averages
 MD| CPU time per MD step [s]                      4.956550            21.093633
 MD| Energy drift per atom [K]          -0.831993802856E+02  -0.617321236926E+02
 MD| Potential energy [hartree]         -0.880885812373E+04  -0.880861414995E+04
 MD| Kinetic energy [hartree]            0.268832255521E+01   0.245065233705E+01
 MD| Temperature [K]                             368.687995           336.092890
 MD| ***************************************************************************

 Number of electrons:                                                       4096
 Number of occupied orbitals:                                               2048
 Number of molecular orbitals:                                              2048

 Number of orbital functions:                                              20480
 Number of independent orbital functions:                                  20480

 Extrapolation method: PS Nth order
 Extrapolation order:  3


 SCF WAVEFUNCTION OPTIMIZATION

  ----------------------------------- OT ---------------------------------------
  Minimizer      : DIIS                : direct inversion
                                         in the iterative subspace
                                         using   7 DIIS vectors
                                         safer DIIS on
  Preconditioner : FULL_KINETIC        : inversion of T + eS
  Precond_solver : DEFAULT
  stepsize       :    0.15000000                  energy_gap     :    0.20000000
  eps_taylor     :   0.10000E-15                  max_taylor     :             4
  ----------------------------------- OT ---------------------------------------

  Step     Update method      Time    Convergence         Total energy    Change
  ------------------------------------------------------------------------------
     1 OT DIIS     0.15E+00    1.9     0.00005398     -8808.8521915144 -8.81E+03
     2 OT DIIS     0.15E+00    0.4     0.00004360     -8808.8685917192 -1.64E-02
     3 OT DIIS     0.15E+00    0.6     0.00002876     -8808.8948197459 -2.62E-02
     4 OT DIIS     0.15E+00    0.6     0.00002104     -8808.9082117417 -1.34E-02
     5 OT DIIS     0.15E+00    0.6     0.00001317     -8808.9185192747 -1.03E-02
     6 OT DIIS     0.15E+00    0.6     0.00000843     -8808.9223714126 -3.85E-03

  *** SCF run converged in     6 steps ***


  Electronic density on regular grids:      -4096.0000071800       -0.0000071800
  Core density on regular grids:             4095.9999999999       -0.0000000001
  Total charge density on r-space grids:       -0.0000071801
  Total charge density g-space grids:          -0.0000071801

  Overlap energy of the core charge distribution:               0.00001548085113
  Self energy of the core charge distribution:             -22442.43995950839599
  Core Hamiltonian energy:                                   6547.40962378921085
  Hartree energy:                                            9201.58656191390037
  Exchange-correlation energy:                              -2115.47861308817028

  Total energy:                                             -8808.92237141260193

 ENERGY| Total FORCE_EVAL ( QS ) energy [a.u.]:            -8808.923934590227873

 MD| ***************************************************************************
 MD| Step number                                                               5
 MD| Time [fs]                                                          2.500000
 MD| Conserved quantity [hartree]                            -0.880617228912E+04
 MD| ---------------------------------------------------------------------------
 MD|                                          Instantaneous             Averages
 MD| CPU time per MD step [s]                      5.735677            18.022042
 MD| Energy drift per atom [K]          -0.837108587791E+02  -0.661278707099E+02
 MD| Potential energy [hartree]         -0.880892393459E+04  -0.880867610688E+04
 MD| Kinetic energy [hartree]            0.275164546570E+01   0.251085096278E+01
 MD| Temperature [K]                             377.372368           344.348786
 MD| ***************************************************************************

 Number of electrons:                                                       4096
 Number of occupied orbitals:                                               2048
 Number of molecular orbitals:                                              2048

 Number of orbital functions:                                              20480
 Number of independent orbital functions:                                  20480

 Extrapolation method: PS Nth order
 Extrapolation order:  3


 SCF WAVEFUNCTION OPTIMIZATION

  ----------------------------------- OT ---------------------------------------
  Minimizer      : DIIS                : direct inversion
                                         in the iterative subspace
                                         using   7 DIIS vectors
                                         safer DIIS on
  Preconditioner : FULL_KINETIC        : inversion of T + eS
  Precond_solver : DEFAULT
  stepsize       :    0.15000000                  energy_gap     :    0.20000000
  eps_taylor     :   0.10000E-15                  max_taylor     :             4
  ----------------------------------- OT ---------------------------------------

  Step     Update method      Time    Convergence         Total energy    Change
  ------------------------------------------------------------------------------
     1 OT DIIS     0.15E+00    1.9     0.00004459     -8808.8152217717 -8.81E+03
     2 OT DIIS     0.15E+00    0.4     0.00003657     -8808.8265180246 -1.13E-02
     3 OT DIIS     0.15E+00    0.4     0.00002088     -8808.8466705104 -2.02E-02
     4 OT DIIS     0.15E+00    0.4     0.00001309     -8808.8539215341 -7.25E-03
     5 OT DIIS     0.15E+00    0.4     0.00000884     -8808.8567199621 -2.80E-03

  *** SCF run converged in     5 steps ***


  Electronic density on regular grids:      -4096.0000062624       -0.0000062624
  Core density on regular grids:             4095.9999999983       -0.0000000017
  Total charge density on r-space grids:       -0.0000062642
  Total charge density g-space grids:          -0.0000062642

  Overlap energy of the core charge distribution:               0.00000971626243
  Self energy of the core charge distribution:             -22442.43995950839599
  Core Hamiltonian energy:                                   6531.17274294224626
  Hartree energy:                                            9213.44167478902455
  Exchange-correlation energy:                              -2111.03118790121516

  Total energy:                                             -8808.85671996207748

 ENERGY| Total FORCE_EVAL ( QS ) energy [a.u.]:            -8808.858095928206239

 MD| ***************************************************************************
 MD| Step number                                                               6
 MD| Time [fs]                                                          3.000000
 MD| Conserved quantity [hartree]                            -0.880617011300E+04
 MD| ---------------------------------------------------------------------------
 MD|                                          Instantaneous             Averages
 MD| CPU time per MD step [s]                      4.462307            15.762086
 MD| Energy drift per atom [K]          -0.832634849909E+02  -0.689838064234E+02
 MD| Potential energy [hartree]         -0.880885809593E+04  -0.880870643838E+04
 MD| Kinetic energy [hartree]            0.268798293195E+01   0.254037295764E+01
 MD| Temperature [K]                             368.641418           348.397558
 MD| ***************************************************************************

 Number of electrons:                                                       4096
 Number of occupied orbitals:                                               2048
 Number of molecular orbitals:                                              2048

 Number of orbital functions:                                              20480
 Number of independent orbital functions:                                  20480

 Extrapolation method: PS Nth order
 Extrapolation order:  3


 SCF WAVEFUNCTION OPTIMIZATION

  ----------------------------------- OT ---------------------------------------
  Minimizer      : DIIS                : direct inversion
                                         in the iterative subspace
                                         using   7 DIIS vectors
                                         safer DIIS on
  Preconditioner : FULL_KINETIC        : inversion of T + eS
  Precond_solver : DEFAULT
  stepsize       :    0.15000000                  energy_gap     :    0.20000000
  eps_taylor     :   0.10000E-15                  max_taylor     :             4
  ----------------------------------- OT ---------------------------------------

  Step     Update method      Time    Convergence         Total energy    Change
  ------------------------------------------------------------------------------
     1 OT DIIS     0.15E+00    1.9     0.00004551     -8808.6384770441 -8.81E+03
     2 OT DIIS     0.15E+00    0.4     0.00003729     -8808.6502439152 -1.18E-02
     3 OT DIIS     0.15E+00    0.4     0.00002023     -8808.6710752054 -2.08E-02
     4 OT DIIS     0.15E+00    0.4     0.00001308     -8808.6771447201 -6.07E-03
     5 OT DIIS     0.15E+00    0.4     0.00000755     -8808.6802139887 -3.07E-03

  *** SCF run converged in     5 steps ***


  Electronic density on regular grids:      -4096.0000050933       -0.0000050933
  Core density on regular grids:             4095.9999999989       -0.0000000011
  Total charge density on r-space grids:       -0.0000050945
  Total charge density g-space grids:          -0.0000050945

  Overlap energy of the core charge distribution:               0.00000622092350
  Self energy of the core charge distribution:             -22442.43995950839599
  Core Hamiltonian energy:                                   6517.03118106877810
  Hartree energy:                                            9223.86272634318630
  Exchange-correlation energy:                              -2107.13416811319712

  Total energy:                                             -8808.68021398870769

 ENERGY| Total FORCE_EVAL ( QS ) energy [a.u.]:            -8808.681147535473428

 MD| ***************************************************************************
 MD| Step number                                                               7
 MD| Time [fs]                                                          3.500000
 MD| Conserved quantity [hartree]                            -0.880616595714E+04
 MD| ---------------------------------------------------------------------------
 MD|                                          Instantaneous             Averages
 MD| CPU time per MD step [s]                      4.441312            14.144833
 MD| Energy drift per atom [K]          -0.824091145255E+02  -0.709017075808E+02
 MD| Potential energy [hartree]         -0.880868114754E+04  -0.880870282541E+04
 MD| Kinetic energy [hartree]            0.251519039228E+01   0.253677544830E+01
 MD| Temperature [K]                             344.943913           347.904180
 MD| ***************************************************************************

 Number of electrons:                                                       4096
 Number of occupied orbitals:                                               2048
 Number of molecular orbitals:                                              2048

 Number of orbital functions:                                              20480
 Number of independent orbital functions:                                  20480

 Extrapolation method: PS Nth order
 Extrapolation order:  3


 SCF WAVEFUNCTION OPTIMIZATION

  ----------------------------------- OT ---------------------------------------
  Minimizer      : DIIS                : direct inversion
                                         in the iterative subspace
                                         using   7 DIIS vectors
                                         safer DIIS on
  Preconditioner : FULL_KINETIC        : inversion of T + eS
  Precond_solver : DEFAULT
  stepsize       :    0.15000000                  energy_gap     :    0.20000000
  eps_taylor     :   0.10000E-15                  max_taylor     :             4
  ----------------------------------- OT ---------------------------------------

  Step     Update method      Time    Convergence         Total energy    Change
  ------------------------------------------------------------------------------
     1 OT DIIS     0.15E+00    1.9     0.00004639     -8808.4083532561 -8.81E+03
     2 OT DIIS     0.15E+00    0.4     0.00003771     -8808.4205215077 -1.22E-02
     3 OT DIIS     0.15E+00    0.4     0.00002094     -8808.4409407508 -2.04E-02
     4 OT DIIS     0.15E+00    0.4     0.00001360     -8808.4479497097 -7.01E-03
     5 OT DIIS     0.15E+00    0.4     0.00001073     -8808.4504245629 -2.47E-03
     6 OT DIIS     0.15E+00    0.4     0.00000737     -8808.4530065426 -2.58E-03

  *** SCF run converged in     6 steps ***


  Electronic density on regular grids:      -4096.0000038468       -0.0000038468
  Core density on regular grids:             4096.0000000008        0.0000000008
  Total charge density on r-space grids:       -0.0000038459
  Total charge density g-space grids:          -0.0000038459

  Overlap energy of the core charge distribution:               0.00000436187246
  Self energy of the core charge distribution:             -22442.43995950839599
  Core Hamiltonian energy:                                   6506.06509156623179
  Hartree energy:                                            9232.01158742136977
  Exchange-correlation energy:                              -2104.08973038365912

  Total energy:                                             -8808.45300654258244

 ENERGY| Total FORCE_EVAL ( QS ) energy [a.u.]:            -8808.454571174708690

 MD| ***************************************************************************
 MD| Step number                                                               8
 MD| Time [fs]                                                          4.000000
 MD| Conserved quantity [hartree]                            -0.880616115025E+04
 MD| ---------------------------------------------------------------------------
 MD|                                          Instantaneous             Averages
 MD| CPU time per MD step [s]                      4.779007            12.974104
 MD| Energy drift per atom [K]          -0.814209006551E+02  -0.722166067151E+02
 MD| Potential energy [hartree]         -0.880845457117E+04  -0.880867179363E+04
 MD| Kinetic energy [hartree]            0.229342092945E+01   0.250635613345E+01
 MD| Temperature [K]                             314.529506           343.732346
 MD| ***************************************************************************

 Number of electrons:                                                       4096
 Number of occupied orbitals:                                               2048
 Number of molecular orbitals:                                              2048

 Number of orbital functions:                                              20480
 Number of independent orbital functions:                                  20480

 Extrapolation method: PS Nth order
 Extrapolation order:  3


 SCF WAVEFUNCTION OPTIMIZATION

  ----------------------------------- OT ---------------------------------------
  Minimizer      : DIIS                : direct inversion
                                         in the iterative subspace
                                         using   7 DIIS vectors
                                         safer DIIS on
  Preconditioner : FULL_KINETIC        : inversion of T + eS
  Precond_solver : DEFAULT
  stepsize       :    0.15000000                  energy_gap     :    0.20000000
  eps_taylor     :   0.10000E-15                  max_taylor     :             4
  ----------------------------------- OT ---------------------------------------

  Step     Update method      Time    Convergence         Total energy    Change
  ------------------------------------------------------------------------------
     1 OT DIIS     0.15E+00    1.9     0.00004050     -8808.2146977454 -8.81E+03
     2 OT DIIS     0.15E+00    0.4     0.00003407     -8808.2241592202 -9.46E-03
     3 OT DIIS     0.15E+00    0.4     0.00001718     -8808.2450179110 -2.09E-02
     4 OT DIIS     0.15E+00    0.4     0.00001245     -8808.2495172221 -4.50E-03
     5 OT DIIS     0.15E+00    0.4     0.00000891     -8808.2522160952 -2.70E-03

  *** SCF run converged in     5 steps ***


  Electronic density on regular grids:      -4096.0000022243       -0.0000022243
  Core density on regular grids:             4096.0000000016        0.0000000016
  Total charge density on r-space grids:       -0.0000022227
  Total charge density g-space grids:          -0.0000022227

  Overlap energy of the core charge distribution:               0.00000353692301
  Self energy of the core charge distribution:             -22442.43995950839599
  Core Hamiltonian energy:                                   6498.75942567916354
  Hartree energy:                                            9237.49748494140113
  Exchange-correlation energy:                              -2102.06917074427565

  Total energy:                                             -8808.25221609518485

 ENERGY| Total FORCE_EVAL ( QS ) energy [a.u.]:            -8808.253873555093378

 MD| ***************************************************************************
 MD| Step number                                                               9
 MD| Time [fs]                                                          4.500000
 MD| Conserved quantity [hartree]                            -0.880615635514E+04
 MD| ---------------------------------------------------------------------------
 MD|                                          Instantaneous             Averages
 MD| CPU time per MD step [s]                      4.460758            12.028177
 MD| Energy drift per atom [K]          -0.804351119959E+02  -0.731297739685E+02
 MD| Potential energy [hartree]         -0.880825387356E+04  -0.880862535806E+04
 MD| Kinetic energy [hartree]            0.209751841100E+01   0.246092971984E+01
 MD| Temperature [K]                             287.662601           337.502374
 MD| ***************************************************************************

 Number of electrons:                                                       4096
 Number of occupied orbitals:                                               2048
 Number of molecular orbitals:                                              2048

 Number of orbital functions:                                              20480
 Number of independent orbital functions:                                  20480

 Extrapolation method: PS Nth order
 Extrapolation order:  3


 SCF WAVEFUNCTION OPTIMIZATION

  ----------------------------------- OT ---------------------------------------
  Minimizer      : DIIS                : direct inversion
                                         in the iterative subspace
                                         using   7 DIIS vectors
                                         safer DIIS on
  Preconditioner : FULL_KINETIC        : inversion of T + eS
  Precond_solver : DEFAULT
  stepsize       :    0.15000000                  energy_gap     :    0.20000000
  eps_taylor     :   0.10000E-15                  max_taylor     :             4
  ----------------------------------- OT ---------------------------------------

  Step     Update method      Time    Convergence         Total energy    Change
  ------------------------------------------------------------------------------
     1 OT DIIS     0.15E+00    1.9     0.00004011     -8808.1037292504 -8.81E+03
     2 OT DIIS     0.15E+00    0.4     0.00003342     -8808.1129261218 -9.20E-03
     3 OT DIIS     0.15E+00    0.4     0.00002048     -8808.1296917342 -1.68E-02
     4 OT DIIS     0.15E+00    0.4     0.00001263     -8808.1379699620 -8.28E-03
     5 OT DIIS     0.15E+00    0.4     0.00001017     -8808.1402112346 -2.24E-03
     6 OT DIIS     0.15E+00    0.4     0.00000715     -8808.1425468912 -2.34E-03

  *** SCF run converged in     6 steps ***


  Electronic density on regular grids:      -4096.0000006753       -0.0000006753
  Core density on regular grids:             4096.0000000008        0.0000000008
  Total charge density on r-space grids:       -0.0000006745
  Total charge density g-space grids:          -0.0000006745

  Overlap energy of the core charge distribution:               0.00000340787708
  Self energy of the core charge distribution:             -22442.43995950839599
  Core Hamiltonian energy:                                   6495.52246693845700
  Hartree energy:                                            9239.94935666820675
  Exchange-correlation energy:                              -2101.17441439735467

  Total energy:                                             -8808.14254689120935

 ENERGY| Total FORCE_EVAL ( QS ) energy [a.u.]:            -8808.143947945818582

 MD| ***************************************************************************
 MD| Step number                                                              10
 MD| Time [fs]                                                          5.000000
 MD| Conserved quantity [hartree]                            -0.880615520772E+04
 MD| ---------------------------------------------------------------------------
 MD|                                          Instantaneous             Averages
 MD| CPU time per MD step [s]                      4.771326            11.302492
 MD| Energy drift per atom [K]          -0.801992217291E+02  -0.738367187446E+02
 MD| Potential energy [hartree]         -0.880814394795E+04  -0.880857721705E+04
 MD| Kinetic energy [hartree]            0.198874022585E+01   0.241371077044E+01
 MD| Temperature [K]                             272.744297           331.026566
 MD| ***************************************************************************

 -------------------------------------------------------------------------------
 -                                                                             -
 -                                DBCSR STATISTICS                             -
 -                                                                             -
 -------------------------------------------------------------------------------
 COUNTER                                    TOTAL       BLAS       SMM       ACC
 flops     9 x    32 x    32          13287555072     100.0%      0.0%      0.0%
 flops    22 x    32 x    32          16240345088     100.0%      0.0%      0.0%
 flops   200 x    64 x    64         936168652800     100.0%      0.0%      0.0%
 flops   147 x    64 x    64        1376167919616     100.0%      0.0%      0.0%
 flops   142 x    64 x    64        1994039230464     100.0%      0.0%      0.0%
 flops   200 x    64 x   640        2130706432000     100.0%      0.0%      0.0%
 flops   182 x    64 x    64        2555740422144     100.0%      0.0%      0.0%
 flops   138 x    64 x    64        2583825481728     100.0%      0.0%      0.0%
 flops   151 x    64 x    64        2827229331456     100.0%      0.0%      0.0%
 flops   147 x    64 x   640        3132138455040     100.0%      0.0%      0.0%
 flops   142 x    64 x   640        4538404700160     100.0%      0.0%      0.0%
 flops   129 x    64 x    64        5434459029504     100.0%      0.0%      0.0%
 flops     9 x     9 x    64        5648350040064     100.0%      0.0%      0.0%
 flops   182 x    64 x   640        5816828559360     100.0%      0.0%      0.0%
 flops   138 x    64 x   640        5880749752320     100.0%      0.0%      0.0%
 flops   191 x    64 x    64        6258287443968     100.0%      0.0%      0.0%
 flops   151 x    64 x   640        6434733424640     100.0%      0.0%      0.0%
 flops     9 x    22 x    64        7855827369984     100.0%      0.0%      0.0%
 flops    22 x     9 x    64        7866447519744     100.0%      0.0%      0.0%
 flops   120 x    64 x    64        9548920258560     100.0%      0.0%      0.0%
 flops    22 x    22 x    64       11004752822272     100.0%      0.0%      0.0%
 flops   129 x    64 x   640       12368750837760     100.0%      0.0%      0.0%
 flops   191 x    64 x   640       14243772497920     100.0%      0.0%      0.0%
 flops    32 x    64 x    64       14465449852928     100.0%      0.0%      0.0%
 flops   169 x    64 x    64       19776562790400     100.0%      0.0%      0.0%
 flops   120 x    64 x   640       21733205606400     100.0%      0.0%      0.0%
 flops     9 x    32 x     9       23722505551872     100.0%      0.0%      0.0%
 flops   160 x    64 x    64       25463787356160     100.0%      0.0%      0.0%
 flops    22 x    32 x     9       33153656684544     100.0%      0.0%      0.0%
 flops     9 x    32 x    22       33153656684544     100.0%      0.0%      0.0%
 flops   169 x    64 x   640       45011173376000     100.0%      0.0%      0.0%
 flops    22 x    32 x    22       46115724689408     100.0%      0.0%      0.0%
 flops   160 x    64 x   640       57955214950400     100.0%      0.0%      0.0%
 flops    32 x    64 x   640       77824807403520     100.0%      0.0%      0.0%
 flops inhomo. stacks              56047142174720     100.0%      0.0%      0.0%
 flops total                       574.888715E+12     100.0%      0.0%      0.0%
 flops max/rank                    570.336734E+09     100.0%      0.0%      0.0%
 matmuls inhomo. stacks                  13327360     100.0%      0.0%      0.0%
 matmuls total                        12815952000     100.0%      0.0%      0.0%
 number of processed stacks             399561536     100.0%      0.0%      0.0%
 average stack size                                    32.1       0.0       0.0
 marketing flops                     1.147134E+15
 -------------------------------------------------------------------------------
 # multiplications                           2431
 max memory usage/rank             339.927040E+06
 # max total images/rank                        1
 # max 3D layers                                1
 # MPI messages exchanged               154339328
 MPI messages size (bytes):
  total size                        46.347466E+12
  min size                           0.000000E+00
  max size                           3.276800E+06
  average size                     300.295906E+03
 MPI breakdown and total messages size (bytes):
             size <=      128             1036640                        0
       128 < size <=     8192                   0                        0
      8192 < size <=    32768            71180960            2332278915072
     32768 < size <=   131072                   0                        0
    131072 < size <=  4194304            82121728           44015231621664
   4194304 < size <= 16777216                   0                        0
  16777216 < size                               0                        0
 -------------------------------------------------------------------------------
 -                                                                             -
 -                      DBCSR MESSAGE PASSING PERFORMANCE                      -
 -                                                                             -
 -------------------------------------------------------------------------------
 ROUTINE             CALLS      AVE VOLUME [Bytes]
 MP_Bcast               35                     12.
 MP_Allreduce        12999                     67.
 MP_Alltoall          9270                1277756.
 MP_ISend           311124                 145660.
 MP_IRecv           311124                 145683.
 -------------------------------------------------------------------------------

 -------------------------------------------------------------------------------
 -                                                                             -
 -                                GRID STATISTICS                              -
 -                                                                             -
 -------------------------------------------------------------------------------
 LP    KERNEL             BACKEND                              COUNT     PERCENT
 1     collocate ortho    REF                              135745301      20.25%
 1     integrate ortho    REF                              130493488      19.47%
 2     integrate ortho    REF                               88995618      13.28%
 2     collocate ortho    REF                               84560451      12.61%
 0     collocate ortho    REF                               75171698      11.21%
 0     integrate ortho    REF                               68664071      10.24%
 3     integrate ortho    REF                               26282166       3.92%
 3     collocate ortho    REF                               20755016       3.10%
 0     collocate general  REF                               17301504       2.58%
 1     integrate general  REF                               17301504       2.58%
 4     integrate ortho    REF                                3293394       0.49%
 4     collocate ortho    REF                                1638196       0.24%
 5     integrate ortho    REF                                 141925       0.02%
 -------------------------------------------------------------------------------

 MEMORY| Estimated peak process memory [MiB]                                 325

 -------------------------------------------------------------------------------
 -                                                                             -
 -                         MESSAGE PASSING PERFORMANCE                         -
 -                                                                             -
 -------------------------------------------------------------------------------

 ROUTINE             CALLS      AVE VOLUME [Bytes]
 MP_Group                4
 MP_Bcast             4017                  57868.
 MP_Allreduce        11016                   1360.
 MP_Sync              1660
 MP_Alltoall          2222                1743297.
 MP_ISendRecv       519684                   4104.
 MP_Wait            538864
 MP_comm_split          66
 MP_ISend            59202                  16547.
 MP_IRecv            59202                  16547.
 -------------------------------------------------------------------------------


 -------------------------------------------------------------------------------
 -                                                                             -
 -                           R E F E R E N C E S                               -
 -                                                                             -
 -------------------------------------------------------------------------------
 
 CP2K version 8.2, the CP2K developers group (2021).
 CP2K is freely available from https://www.cp2k.org/ .

 Kuehne,Thomas D.; Iannuzzi,Marcella; Del Ben,Mauro;
 Rybkin,Vladimir V.; Seewald,Patrick; Stein,Frederick; Laino,Teodoro;
 Khaliullin,Rustam Z.; Schuett,Ole; Schiffmann,Florian; Golze,Dorothea;
 Wilhelm,Jan; Chulkov,Sergey; Bani-Hashemian,Mohammad Hossein;
 Weber,Valery; Borstnik,Urban; Taillefumier,Mathieu;
 Jakobovits,Alice Shoshana; Lazzaro,Alfio; Pabst,Hans; Mueller,Tiziano;
 Schade,Robert; Guidon,Manuel; Andermatt,Samuel; Holmberg,Nico;
 Schenter,Gregory K.; Hehn,Anna; Bussy,Augustin; Belleflamme,Fabian;
 Tabacchi,Gloria; Gloess,Andreas; Lass,Michael; Bethune,Iain;
 Mundy,Christopher J.; Plessl,Christian; Watkins,Matt;
 VandeVondele,Joost; Krack,Matthias; Hutter,Juerg. 
 The Journal of Chemical Physics, 152 (19), (2020). 
 CP2K: An electronic structure and molecular dynamics software package -
 Quickstep: Efficient and accurate electronic structure calculations.
 https://doi.org/10.1063/5.0007045

 Schuett, Ole; Messmer, Peter; Hutter, Juerg; VandeVondele, Joost. 
 Electronic Structure Calculations on Graphics Processing Units, John
 Wiley & Sons, Ltd, 173-190 (2016). 
 GPU-Accelerated Sparse Matrix-Matrix Multiplication for
 Linear Scaling Density Functional Theory.
 https://doi.org/10.1002/9781118670712.ch8

 Borstnik, U; VandeVondele, J; Weber, V; Hutter, J. 
 PARALLEL COMPUTING, 40 (5-6), 47-58 (2014). 
 Sparse matrix multiplication: The distributed block-compressed sparse
 row library.
 https://doi.org/10.1016/j.parco.2014.03.012

 Hutter, J; Iannuzzi, M; Schiffmann, F; VandeVondele, J. 
 WIREs Comput Mol Sci., 4 (1), 15-25 (2014). 
 CP2K: atomistic simulations of condensed matter systems.
 https://doi.org/10.1002/wcms.1159

 Marek, A; Blum, V; Johanni, R; Havu, V; Lang, B; Auckenthaler, T;
 Heinecke, A; Bungartz, H; Lederer, H. 
 Journal of Physics: Condensed Matter, 26 (21), (2014). 
 The ELPA library: scalable parallel eigenvalue solutions for
 electronic structure
 theory and computational science.
 https://doi.org/10.1088/0953-8984/26/21/213201

 Krack, M. 
 THEORETICAL CHEMISTRY ACCOUNTS, 114 (1-3), 145-152 (2005). 
 Pseudopotentials for H to Kr optimized for gradient-corrected
 exchange-correlation functionals.
 https://doi.org/10.1007/s00214-005-0655-y

 VandeVondele, J; Krack, M; Mohamed, F; Parrinello, M; Chassaing, T;
 Hutter, J. COMPUTER PHYSICS COMMUNICATIONS, 167 (2), 103-128 (2005). 
 QUICKSTEP: Fast and accurate density functional calculations using a
 mixed Gaussian and plane waves approach.
 https://doi.org/10.1016/j.cpc.2004.12.014

 Frigo, M; Johnson, SG. 
 PROCEEDINGS OF THE IEEE, 93 (2), 216-231 (2005). 
 The design and implementation of FFTW3.
 https://doi.org/10.1109/JPROC.2004.840301

 VandeVondele, J; Hutter, J. 
 JOURNAL OF CHEMICAL PHYSICS, 118 (10), 4365-4369 (2003). 
 An efficient orbital transformation method for electronic structure
 calculations.
 https://doi.org/10.1063/1.1543154

 Hartwigsen, C; Goedecker, S; Hutter, J. 
 PHYSICAL REVIEW B, 58 (7), 3641-3662 (1998). 
 Relativistic separable dual-space Gaussian pseudopotentials from H to Rn.
 https://doi.org/10.1103/PhysRevB.58.3641

 Lippert, G; Hutter, J; Parrinello, M. 
 MOLECULAR PHYSICS, 92 (3), 477-487 (1997). 
 A hybrid Gaussian and plane wave density functional scheme.
 https://doi.org/10.1080/002689797170220

 Goedecker, S; Teter, M; Hutter, J. 
 PHYSICAL REVIEW B, 54 (3), 1703-1710 (1996). 
 Separable dual-space Gaussian pseudopotentials.
 https://doi.org/10.1103/PhysRevB.54.1703


 -------------------------------------------------------------------------------
 -                                                                             -
 -                                T I M I N G                                  -
 -                                                                             -
 -------------------------------------------------------------------------------
 SUBROUTINE                       CALLS  ASD         SELF TIME        TOTAL TIME
                                MAXIMUM       AVERAGE  MAXIMUM  AVERAGE  MAXIMUM
 CP2K                                 1  1.0    0.366    0.407  113.715  113.743
 qs_mol_dyn_low                       1  2.0    0.003    0.005  113.075  113.096
 qs_forces                           11  3.9    0.004    0.004  112.932  112.959
 qs_energies                         11  4.9    0.001    0.015  111.754  111.784
 scf_env_do_scf                      11  5.9    0.001    0.001   88.800   88.801
 scf_env_do_scf_inner_loop          116  6.6    0.003    0.008   58.832   58.870
 velocity_verlet                     10  3.0    0.001    0.002   54.378   54.379
 qs_scf_new_mos                     116  7.6    0.001    0.001   47.476   47.574
 qs_scf_loop_do_ot                  116  8.6    0.001    0.001   47.475   47.573
 ot_scf_mini                        116  9.6    0.003    0.006   45.311   45.429
 dbcsr_multiply_generic            2431 12.5    0.103    0.113   35.470   36.979
 multiply_cannon                   2431 13.5    0.288    0.312   28.203   30.243
 init_scf_loop                       11  6.9    0.000    0.000   29.919   29.924
 multiply_cannon_loop              2431 14.5    0.310    0.350   26.725   28.949
 prepare_preconditioner              11  7.9    0.000    0.000   28.753   28.765
 make_preconditioner                 11  8.9    0.000    0.000   28.753   28.765
 make_full_inverse_cholesky          11  9.9    0.000    0.001   25.632   25.652
 ot_mini                            116 10.6    0.001    0.002   22.976   23.082
 mp_waitall_1                   1185852 15.4   12.678   18.009   12.678   18.009
 qs_ot_get_p                        127 10.4    0.001    0.001   17.427   17.576
 multiply_cannon_multrec          77792 15.5   13.733   16.011   13.739   16.017
 qs_ot_p2m_diag                      66 11.2    0.015    0.019   14.312   14.330
 cp_dbcsr_syevd                      66 12.2    0.004    0.005   13.754   13.764
 mp_alltoall_d11v                  2299 14.0   13.418   13.556   13.418   13.556
 cp_fm_diag_elpa                     66 13.2    0.000    0.001   13.447   13.452
 qs_energies_init_hamiltonians       11  5.9    0.000    0.000   13.367   13.394
 cp_fm_redistribute_end              66 14.2   12.803   13.295   12.833   13.300
 dbcsr_complete_redistribute        361 12.5    0.094    0.103   13.127   13.232
 qs_ot_get_derivative               116 11.6    0.001    0.001   13.062   13.183
 qs_env_update_s_mstruct             11  6.9    0.000    0.000   12.975   13.087
 cp_fm_diag_elpa_base                66 14.2    0.453   12.912    0.458   13.075
 qs_create_task_list                 11  7.9    0.000    0.001   11.444   11.581
 generate_qs_task_list               11  8.9    0.022    0.043   11.444   11.581
 distribute_tasks                    11  9.9    0.007    0.008   11.420   11.561
 create_local_tasks                  11 10.9    0.001    0.003   11.133   11.244
 mp_alltoall_l11v                    11 11.9   11.129   11.240   11.129   11.240
 cp_fm_cholesky_invert               11 10.9   10.486   10.488   10.486   10.488
 copy_dbcsr_to_fm                   169 11.5    0.003    0.003   10.013   10.048
 apply_preconditioner_dbcsr         127 12.6    0.000    0.000    8.724   10.022
 apply_single                       127 13.6    0.000    0.000    8.723   10.022
 qs_rho_update_rho                  127  7.7    0.001    0.001    9.828    9.838
 calculate_rho_elec                 127  8.7    0.011    0.012    9.827    9.838
 ot_diis_step                       116 11.6    0.028    0.031    9.705    9.706
 transfer_dbcsr_to_fm                11 10.9    0.000    0.000    9.400    9.410
 multiply_cannon_metrocomm3       77792 15.5    0.129    0.148    3.753    9.230
 init_scf_run                        11  5.9    0.000    0.001    8.654    8.654
 scf_env_initial_rho_setup           11  6.9    0.000    0.000    8.654    8.654
 density_rs2pw                      127  9.7    0.004    0.005    7.551    7.877
 rebuild_ks_matrix                  127  8.3    0.001    0.001    7.335    7.514
 qs_ks_build_kohn_sham_matrix       127  9.3    0.017    0.120    7.335    7.514
 multiply_cannon_metrocomm4       75361 15.5    0.134    0.152    2.944    7.445
 multiply_cannon_metrocomm1       77792 15.5    0.136    0.155    5.579    7.371
 mp_irecv_dv                     164322 16.4    2.726    7.225    2.726    7.225
 rs_pw_transfer                    1038 11.9    0.009    0.027    6.509    6.926
 qs_ks_update_qs_env                127  7.6    0.002    0.003    6.486    6.656
 cp_fm_cholesky_decompose            22 10.9    6.165    6.178    6.165    6.178
 pw_transfer                       1535 11.6    0.057    0.066    5.000    5.121
 fft_wrap_pw1pw2                   1281 12.7    0.003    0.004    4.939    5.062
 qs_ot_get_derivative_diag           62 12.2    0.001    0.002    4.818    4.907
 make_m2s                          4862 13.5    0.087    0.095    4.338    4.733
 make_images                       4862 14.5    0.520    0.608    3.888    4.249
 wfi_extrapolate                     11  7.9    0.001    0.001    3.904    3.904
 sum_up_and_integrate               127 10.3    0.003    0.003    3.810    3.863
 integrate_v_rspace                 127 11.3    0.003    0.004    3.807    3.860
 fft3d_ps                           762 15.0    0.022    0.033    3.654    3.675
 copy_fm_to_dbcsr                   192 11.4    0.001    0.001    3.471    3.560
 mp_sync                           1660 16.9    2.183    3.516    2.183    3.516
 mp_sum_d                          4424 12.1    2.495    3.463    2.495    3.463
 xz_to_yz                           381 14.7    0.024    0.044    3.383    3.395
 qs_ot_get_derivative_taylor         54 13.0    0.001    0.001    3.253    3.316
 transfer_fm_to_dbcsr                11  9.9    0.000    0.000    3.119    3.193
 mp_sum_l                         11831 13.4    2.384    2.924    2.384    2.924
 dbcsr_dot_sd                      1303 12.0    0.084    0.094    1.864    2.736
 potential_pw2rs                    127 12.3    0.002    0.003    2.513    2.569
 calculate_dm_sparse                127  9.5    0.000    0.000    2.434    2.517
 mp_isend_zv                      53848 17.0    1.025    2.448    1.025    2.448
 qs_ot_get_orbitals                 116 10.6    0.000    0.000    2.209    2.330
 -------------------------------------------------------------------------------

 The number of warnings for this run is : 1
 
 -------------------------------------------------------------------------------
  **** **** ******  **  PROGRAM ENDED AT                 2022-01-20 10:47:21.053
 ***** ** ***  *** **   PROGRAM RAN ON                                 nid003678
 **    ****   ******    PROGRAM RAN BY                                    hjudge
 ***** **    ** ** **   PROGRAM PROCESS ID                                108665
  **** **  *******  **  PROGRAM STOPPED IN /mnt/lustre/a2fs-work2/work/z19/z19/h
                                           judge/CUG/archer2/CPU/CP2K/H2O-512/32
                                           NODES/128CPN/4THREADS
