 DBCSR| CPU Multiplication driver                                           BLAS
 DBCSR| Multrec recursion limit                                              512
 DBCSR| Multiplication stack size                                           1000
 DBCSR| Maximum elements for images                                    UNLIMITED
 DBCSR| Multiplicative factor virtual images                                   1
 DBCSR| Use multiplication densification                                       T
 DBCSR| Multiplication size stacks                                             3
 DBCSR| Use memory pool for CPU allocation                                     F
 DBCSR| Number of 3D layers                                               SINGLE
 DBCSR| Use MPI memory allocation                                              F
 DBCSR| Use RMA algorithm                                                      F
 DBCSR| Use Communication thread                                               T
 DBCSR| Communication thread load                                             83
 DBCSR| MPI: My node id                                                        0
 DBCSR| MPI: Number of nodes                                                 512
 DBCSR| OMP: Current number of threads                                         2
 DBCSR| OMP: Max number of threads                                             2
 DBCSR| Split modifier for TAS multiplication algorithm                  1.0E+00


  **** **** ******  **  PROGRAM STARTED AT               2022-01-17 17:00:56.481
 ***** ** ***  *** **   PROGRAM STARTED ON                             nid005010
 **    ****   ******    PROGRAM STARTED BY                                hjudge
 ***** **    ** ** **   PROGRAM PROCESS ID                                 97566
  **** **  *******  **  PROGRAM STARTED IN /mnt/lustre/a2fs-work2/work/z19/z19/h
                                           judge/CUG/archer2/CPU/CP2K/H2O-512/8N
                                           ODES/128CPN/2THREADS

 CP2K| version string:                                          CP2K version 8.2
 CP2K| source code revision number:                                  git:310b7ab
 CP2K| cp2kflags: omp libint fftw3 libxc elpa parallel mpi3 scalapack plumed2   
 CP2K| is freely available from                            https://www.cp2k.org/
 CP2K| Program compiled at                          Thu Dec  2 10:30:45 GMT 2021
 CP2K| Program compiled on                                                  ln02
 CP2K| Program compiled for                                              ARCHER2
 CP2K| Data directory path         /work/y07/shared/apps/core/cp2k/cp2k-8.2/data
 CP2K| Input file name                                               H2O-512.inp

 GLOBAL| Force Environment number                                              1
 GLOBAL| Basis set file name                                      GTH_BASIS_SETS
 GLOBAL| Potential file name                                           POTENTIAL
 GLOBAL| MM Potential file name                                     MM_POTENTIAL
 GLOBAL| Coordinate file name                                      __STD_INPUT__
 GLOBAL| Method name                                                        CP2K
 GLOBAL| Project name                                                    H2O-512
 GLOBAL| Run type                                                             MD
 GLOBAL| FFT library                                                       FFTW3
 GLOBAL| Diagonalization library                                            ELPA
 GLOBAL| Minimum number of eigenvectors for ELPA usage                        16
 GLOBAL| Orthonormality check for eigenvectors                          DISABLED
 GLOBAL| Matrix multiplication library                                    SCALAP
 GLOBAL| All-to-all communication in single precision                          F
 GLOBAL| FFTs using library dependent lengths                                  F
 GLOBAL| Grid backend                                                       AUTO
 GLOBAL| Global print level                                                  LOW
 GLOBAL| MPI I/O enabled                                                       T
 GLOBAL| Total number of message passing processes                           512
 GLOBAL| Number of threads for this process                                    2
 GLOBAL| This output is from process                                           0
 GLOBAL| CPU model name                          AMD EPYC 7742 64-Core Processor
 GLOBAL| CPUID                                                              1002

 MEMORY| system memory details [Kb]
 MEMORY|                        rank 0           min           max       average
 MEMORY| MemTotal            263528088     263528084     263528088     263528087
 MEMORY| MemFree             245876700     245321744     246026496     245834911
 MEMORY| Buffers                 33768         16932         33768         21680
 MEMORY| Cached                 956044        868920       1411344        960213
 MEMORY| Slab                  1655496       1626516       1670272       1655821
 MEMORY| SReclaimable           100204         92460        110784        104814
 MEMORY| MemLikelyFree       246966716     246807468     247027264     246921619


 GENERATE|  Preliminary Number of Bonds generated:                             0
 GENERATE|  Achieved consistency in connectivity generation.

 *******************************************************************************
 *******************************************************************************
 **                                                                           **
 **     #####                         ##              ##                      **
 **    ##   ##            ##          ##              ##                      **
 **   ##     ##                       ##            ######                    **
 **   ##     ##  ##   ##  ##   #####  ##  ##   ####   ##    #####    #####    **
 **   ##     ##  ##   ##  ##  ##      ## ##   ##      ##   ##   ##  ##   ##   **
 **   ##  ## ##  ##   ##  ##  ##      ####     ###    ##   ######   ######    **
 **    ##  ###   ##   ##  ##  ##      ## ##      ##   ##   ##       ##        **
 **     #######   #####   ##   #####  ##  ##  ####    ##    #####   ##        **
 **           ##                                                    ##        **
 **                                                                           **
 **                                                ... make the atoms dance   **
 **                                                                           **
 **            Copyright (C) by CP2K developers group (2000-2021)             **
 **                      J. Chem. Phys. 152, 194103 (2020)                    **
 **                                                                           **
 *******************************************************************************


 TOTAL NUMBERS AND MAXIMUM NUMBERS

  Total number of            - Atomic kinds:                                   2
                             - Atoms:                                       1536
                             - Shell sets:                                  3072
                             - Shells:                                      9216
                             - Primitive Cartesian functions:              10752
                             - Cartesian basis functions:                  21504
                             - Spherical basis functions:                  20480

  Maximum angular momentum of- Orbital basis functions:                        2
                             - Local part of the GTH pseudopotential:          2
                             - Non-local part of the GTH pseudopotential:      0


 SCF PARAMETERS         Density guess:                                    ATOMIC
                        --------------------------------------------------------
                        max_scf:                                              50
                        max_scf_history:                                       0
                        max_diis:                                              4
                        --------------------------------------------------------
                        eps_scf:                                        1.00E-05
                        eps_scf_history:                                0.00E+00
                        eps_diis:                                       1.00E-01
                        eps_eigval:                                     1.00E-05
                        --------------------------------------------------------
                        level_shift [a.u.]:                                 0.00
                        --------------------------------------------------------
                        No outer SCF

 MD_PAR| Molecular dynamics protocol (MD input parameters)
 MD_PAR| Ensemble type                                                       NVE
 MD_PAR| Number of time steps                                                 10
 MD_PAR| Time step [fs]                                                 0.500000
 MD_PAR| Temperature [K]                                              300.000000
 MD_PAR| Temperature tolerance [K]                                      0.000000
 MD_PAR| Print MD information every                                    1 step(s)
 MD_PAR| File type   Print frequency [steps]                          File names
 MD_PAR| Coordinates          1                                H2O-512-pos-1.xyz
 MD_PAR| Velocities           1                                H2O-512-vel-1.xyz
 MD_PAR| Energies             1                                   H2O-512-1.ener
 MD_PAR| Dump                20                                H2O-512-1.restart

 ROT| Rotational analysis information
 ROT| Principal axes and moments of inertia [a.u.]
 ROT|                           1                   2                   3
 ROT| Eigenvalues      6.12011925703E+09   6.17734003456E+09   6.32378668800E+09
 ROT|      x              0.229702356692      0.883899672739      0.407379670409
 ROT|      y              0.711719446246      0.132949289019     -0.689768016354
 ROT|      z              0.663846561462     -0.448381372362      0.598549820611
 ROT| Number of rotovibrational vectors                                        6

 DOF| Calculation of degrees of freedom
 DOF| Number of atoms                                                       1536
 DOF| Number of intramolecular constraints                                     0
 DOF| Number of intermolecular constraints                                     0
 DOF| Invariants (translations + rotations)                                    3
 DOF| Degrees of freedom                                                    4605

 DOF| Restraints information
 DOF| Number of intramolecular restraints                                      0
 DOF| Number of intermolecular restraints                                      0

 MD_VEL| Velocities initialization
 MD_VEL| Initial temperature [K]                                      300.000000
 MD_VEL| COM velocity             0.0000000000    -0.0000000000     0.0000000000

 Number of electrons:                                                       4096
 Number of occupied orbitals:                                               2048
 Number of molecular orbitals:                                              2048

 Number of orbital functions:                                              20480
 Number of independent orbital functions:                                  20480

 Extrapolation method: initial_guess


 SCF WAVEFUNCTION OPTIMIZATION

  ----------------------------------- OT ---------------------------------------
  Minimizer      : DIIS                : direct inversion
                                         in the iterative subspace
                                         using   7 DIIS vectors
                                         safer DIIS on
  Preconditioner : FULL_KINETIC        : inversion of T + eS
  Precond_solver : DEFAULT
  stepsize       :    0.15000000                  energy_gap     :    0.20000000
  eps_taylor     :   0.10000E-15                  max_taylor     :             4
  ----------------------------------- OT ---------------------------------------

  Step     Update method      Time    Convergence         Total energy    Change
  ------------------------------------------------------------------------------
     1 OT DIIS     0.15E+00    7.7     0.00467324     -8480.4728425690 -8.48E+03
     2 OT DIIS     0.15E+00    1.0     0.00318266     -8587.4488310143 -1.07E+02
     3 OT DIIS     0.15E+00    1.0     0.00347210     -8644.7931966768 -5.73E+01
     4 OT DIIS     0.15E+00    1.0     0.00204380     -8678.2157923836 -3.34E+01
     5 OT DIIS     0.15E+00    1.0     0.00148292     -8717.4624183879 -3.92E+01
     6 OT DIIS     0.15E+00    1.0     0.00119954     -8738.7795043572 -2.13E+01
     7 OT DIIS     0.15E+00    1.0     0.00099038     -8755.0185947301 -1.62E+01
     8 OT DIIS     0.15E+00    1.0     0.00079894     -8767.5347825454 -1.25E+01
     9 OT DIIS     0.15E+00    1.0     0.00061581     -8780.1862563834 -1.27E+01
    10 OT DIIS     0.15E+00    1.0     0.00048147     -8788.6147471043 -8.43E+00
    11 OT DIIS     0.15E+00    1.0     0.00038278     -8794.1215228889 -5.51E+00
    12 OT DIIS     0.15E+00    1.0     0.00031960     -8797.5363589594 -3.41E+00
    13 OT DIIS     0.15E+00    1.0     0.00026435     -8799.9344030908 -2.40E+00
    14 OT DIIS     0.15E+00    1.0     0.00023004     -8801.7089305035 -1.77E+00
    15 OT DIIS     0.15E+00    1.0     0.00019592     -8803.0697888564 -1.36E+00
    16 OT DIIS     0.15E+00    1.0     0.00016642     -8804.2000843411 -1.13E+00
    17 OT DIIS     0.15E+00    1.0     0.00014164     -8805.0506655806 -8.51E-01
    18 OT DIIS     0.15E+00    1.0     0.00012638     -8805.6725421207 -6.22E-01
    19 OT DIIS     0.15E+00    1.0     0.00010717     -8806.2171485645 -5.45E-01
    20 OT DIIS     0.15E+00    1.1     0.00009868     -8806.5290018963 -3.12E-01
    21 OT DIIS     0.15E+00    1.0     0.00008484     -8806.8772741195 -3.48E-01
    22 OT DIIS     0.15E+00    1.0     0.00007717     -8807.0943334427 -2.17E-01
    23 OT DIIS     0.15E+00    1.0     0.00006815     -8807.2974129499 -2.03E-01
    24 OT DIIS     0.15E+00    1.0     0.00006019     -8807.4529078233 -1.55E-01
    25 OT DIIS     0.15E+00    1.0     0.00005010     -8807.5989834234 -1.46E-01
    26 OT DIIS     0.15E+00    1.0     0.00004000     -8807.6989662228 -1.00E-01
    27 OT DIIS     0.15E+00    1.0     0.00003462     -8807.7827122402 -8.37E-02
    28 OT DIIS     0.15E+00    1.0     0.00003071     -8807.7824932500  2.19E-04
    29 OT DIIS     0.15E+00    1.0     0.00002690     -8807.8200993195 -3.76E-02
    30 OT DIIS     0.15E+00    1.0     0.00002500     -8807.8399634016 -1.99E-02
    31 OT DIIS     0.15E+00    1.0     0.00002395     -8807.8566460922 -1.67E-02
    32 OT DIIS     0.15E+00    1.0     0.00002328     -8807.8682689642 -1.16E-02
    33 OT DIIS     0.15E+00    1.0     0.00002304     -8807.8827275965 -1.45E-02
    34 OT DIIS     0.15E+00    1.0     0.00002300     -8807.8854890296 -2.76E-03
    35 OT SD       0.15E+00    1.0     0.00002301     -8807.8907467596 -5.26E-03
    36 OT SD       0.15E+00    1.0     0.00002308     -8807.8940817096 -3.33E-03
    37 OT SD       0.15E+00    1.0     0.00002318     -8807.8974407043 -3.36E-03
    38 OT SD       0.15E+00    1.0     0.00002329     -8807.9008284718 -3.39E-03
    39 OT SD       0.15E+00    1.0     0.00002341     -8807.9042491083 -3.42E-03
    40 OT SD       0.15E+00    1.0     0.00002354     -8807.9077063659 -3.46E-03
    41 OT SD       0.15E+00    1.0     0.00002369     -8807.9112037365 -3.50E-03
    42 OT SD       0.15E+00    1.0     0.00002384     -8807.9147444866 -3.54E-03
    43 OT SD       0.15E+00    1.0     0.00002400     -8807.9183316715 -3.59E-03
    44 OT SD       0.15E+00    1.0     0.00002417     -8807.9219681410 -3.64E-03
    45 OT DIIS     0.15E+00    1.0     0.00002435     -8807.9256565391 -3.69E-03
    46 OT DIIS     0.15E+00    1.0     0.00004963     -8807.9134047082  1.23E-02
    47 OT SD       0.15E+00    1.0     0.00005090     -8807.9142429704 -8.38E-04
    48 OT SD       0.15E+00    1.0     0.00004015     -8807.9285074137 -1.43E-02
    49 OT SD       0.15E+00    1.0     0.00003559     -8807.9379882914 -9.48E-03
    50 OT SD       0.15E+00    1.0     0.00003336     -8807.9456670514 -7.68E-03

  Leaving inner SCF loop after reaching    50 steps.


  Electronic density on regular grids:      -4096.0000074744       -0.0000074744
  Core density on regular grids:             4095.9999999927       -0.0000000073
  Total charge density on r-space grids:       -0.0000074817
  Total charge density g-space grids:          -0.0000074817

  Overlap energy of the core charge distribution:               0.00004500798551
  Self energy of the core charge distribution:             -22442.43995950839599
  Core Hamiltonian energy:                                   6603.78894834866333
  Hartree energy:                                            9161.23632622142213
  Exchange-correlation energy:                              -2130.53102712107102

  Total energy:                                             -8807.94566705139550

 *** WARNING in qs_scf.F:576 :: SCF run NOT converged ***


 ENERGY| Total FORCE_EVAL ( QS ) energy [a.u.]:            -8807.952530046206448

 MD_INI| MD initialization
 MD_INI| Potential energy [hartree]                          -0.880795253005E+04
 MD_INI| Kinetic energy [hartree]                             0.218747769838E+01
 MD_INI| Temperature [K]                                              300.000000
 MD_INI| Cell volume [bohr^3]                                 1.037187315243E+05
 MD_INI| Cell volume [ang^3]                                  1.536953010365E+04
 MD_INI| Cell lengths [bohr]      4.69842608E+01  4.69842608E+01  4.69842608E+01
 MD_INI| Cell lengths [ang]       2.48630000E+01  2.48630000E+01  2.48630000E+01
 MD_INI| Cell angles [deg]        9.00000000E+01  9.00000000E+01  9.00000000E+01

 Number of electrons:                                                       4096
 Number of occupied orbitals:                                               2048
 Number of molecular orbitals:                                              2048

 Number of orbital functions:                                              20480
 Number of independent orbital functions:                                  20480

 Extrapolation method: PS Nth order
 Extrapolation order:  0


 SCF WAVEFUNCTION OPTIMIZATION

  ----------------------------------- OT ---------------------------------------
  Minimizer      : DIIS                : direct inversion
                                         in the iterative subspace
                                         using   7 DIIS vectors
                                         safer DIIS on
  Preconditioner : FULL_KINETIC        : inversion of T + eS
  Precond_solver : DEFAULT
  stepsize       :    0.15000000                  energy_gap     :    0.20000000
  eps_taylor     :   0.10000E-15                  max_taylor     :             4
  ----------------------------------- OT ---------------------------------------

  Step     Update method      Time    Convergence         Total energy    Change
  ------------------------------------------------------------------------------
     1 OT DIIS     0.15E+00    3.0     0.00010167     -8807.9545790832 -8.81E+03
     2 OT DIIS     0.15E+00    0.8     0.00007399     -8808.0093294484 -5.48E-02
     3 OT DIIS     0.15E+00    0.8     0.00005493     -8808.0647184128 -5.54E-02
     4 OT DIIS     0.15E+00    0.8     0.00004933     -8808.1021330887 -3.74E-02
     5 OT DIIS     0.15E+00    1.0     0.00004590     -8808.1450602689 -4.29E-02
     6 OT DIIS     0.15E+00    1.0     0.00004349     -8808.1872448641 -4.22E-02
     7 OT DIIS     0.15E+00    1.0     0.00003910     -8808.2475967931 -6.04E-02
     8 OT DIIS     0.15E+00    1.0     0.00002829     -8808.3274173412 -7.98E-02
     9 OT DIIS     0.15E+00    1.0     0.00002026     -8808.3586661730 -3.12E-02
    10 OT DIIS     0.15E+00    1.0     0.00001287     -8808.3785368957 -1.99E-02
    11 OT DIIS     0.15E+00    1.0     0.00001026     -8808.3792643369 -7.27E-04
    12 OT DIIS     0.15E+00    1.0     0.00000705     -8808.3828061291 -3.54E-03

  *** SCF run converged in    12 steps ***


  Electronic density on regular grids:      -4096.0000079115       -0.0000079115
  Core density on regular grids:             4095.9999999916       -0.0000000084
  Total charge density on r-space grids:       -0.0000079199
  Total charge density g-space grids:          -0.0000079199

  Overlap energy of the core charge distribution:               0.00004378131956
  Self energy of the core charge distribution:             -22442.43995950839599
  Core Hamiltonian energy:                                   6601.18530401550834
  Hartree energy:                                            9162.93995976926817
  Exchange-correlation energy:                              -2130.06815418681799

  Total energy:                                             -8808.38280612912058

 ENERGY| Total FORCE_EVAL ( QS ) energy [a.u.]:            -8808.383482353638101

 MD| ***************************************************************************
 MD| Step number                                                               1
 MD| Time [fs]                                                          0.500000
 MD| Conserved quantity [hartree]                            -0.880615757163E+04
 MD| ---------------------------------------------------------------------------
 MD|                                          Instantaneous             Averages
 MD| CPU time per MD step [s]                     89.824062            89.824062
 MD| Energy drift per atom [K]          -0.806950766187E+02   0.000000000000E+00
 MD| Potential energy [hartree]         -0.880838348235E+04  -0.880838348235E+04
 MD| Kinetic energy [hartree]            0.222591072502E+01   0.222591072502E+01
 MD| Temperature [K]                             305.270869           305.270869
 MD| ***************************************************************************

 Number of electrons:                                                       4096
 Number of occupied orbitals:                                               2048
 Number of molecular orbitals:                                              2048

 Number of orbital functions:                                              20480
 Number of independent orbital functions:                                  20480

 Extrapolation method: PS Nth order
 Extrapolation order:  1


 SCF WAVEFUNCTION OPTIMIZATION

  ----------------------------------- OT ---------------------------------------
  Minimizer      : DIIS                : direct inversion
                                         in the iterative subspace
                                         using   7 DIIS vectors
                                         safer DIIS on
  Preconditioner : FULL_KINETIC        : inversion of T + eS
  Precond_solver : DEFAULT
  stepsize       :    0.15000000                  energy_gap     :    0.20000000
  eps_taylor     :   0.10000E-15                  max_taylor     :             4
  ----------------------------------- OT ---------------------------------------

  Step     Update method      Time    Convergence         Total energy    Change
  ------------------------------------------------------------------------------
     1 OT DIIS     0.15E+00    3.0     0.00008001     -8808.4313106227 -8.81E+03
     2 OT DIIS     0.15E+00    0.8     0.00005271     -8808.4637458819 -3.24E-02
     3 OT DIIS     0.15E+00    0.8     0.00003321     -8808.4886511054 -2.49E-02
     4 OT DIIS     0.15E+00    0.8     0.00002251     -8808.5029463679 -1.43E-02
     5 OT DIIS     0.15E+00    0.8     0.00001406     -8808.5119295507 -8.98E-03
     6 OT DIIS     0.15E+00    0.8     0.00000837     -8808.5159230623 -3.99E-03

  *** SCF run converged in     6 steps ***


  Electronic density on regular grids:      -4096.0000084062       -0.0000084062
  Core density on regular grids:             4095.9999999941       -0.0000000059
  Total charge density on r-space grids:       -0.0000084121
  Total charge density g-space grids:          -0.0000084121

  Overlap energy of the core charge distribution:               0.00003948979055
  Self energy of the core charge distribution:             -22442.43995950839599
  Core Hamiltonian energy:                                   6592.75633768361331
  Hartree energy:                                            9168.97934361914304
  Exchange-correlation energy:                              -2127.81168434644314

  Total energy:                                             -8808.51592306229213

 ENERGY| Total FORCE_EVAL ( QS ) energy [a.u.]:            -8808.517234653645573

 MD| ***************************************************************************
 MD| Step number                                                               2
 MD| Time [fs]                                                          1.000000
 MD| Conserved quantity [hartree]                            -0.880616181933E+04
 MD| ---------------------------------------------------------------------------
 MD|                                          Instantaneous             Averages
 MD| CPU time per MD step [s]                      7.979307            48.901685
 MD| Energy drift per atom [K]          -0.815683285522E+02  -0.407841642761E+02
 MD| Potential energy [hartree]         -0.880851723465E+04  -0.880845035850E+04
 MD| Kinetic energy [hartree]            0.235541532820E+01   0.229066302661E+01
 MD| Temperature [K]                             323.031681           314.151275
 MD| ***************************************************************************

 Number of electrons:                                                       4096
 Number of occupied orbitals:                                               2048
 Number of molecular orbitals:                                              2048

 Number of orbital functions:                                              20480
 Number of independent orbital functions:                                  20480

 Extrapolation method: PS Nth order
 Extrapolation order:  2


 SCF WAVEFUNCTION OPTIMIZATION

  ----------------------------------- OT ---------------------------------------
  Minimizer      : DIIS                : direct inversion
                                         in the iterative subspace
                                         using   7 DIIS vectors
                                         safer DIIS on
  Preconditioner : FULL_KINETIC        : inversion of T + eS
  Precond_solver : DEFAULT
  stepsize       :    0.15000000                  energy_gap     :    0.20000000
  eps_taylor     :   0.10000E-15                  max_taylor     :             4
  ----------------------------------- OT ---------------------------------------

  Step     Update method      Time    Convergence         Total energy    Change
  ------------------------------------------------------------------------------
     1 OT DIIS     0.15E+00    3.0     0.00008987     -8808.3717442187 -8.81E+03
     2 OT DIIS     0.15E+00    0.8     0.00007427     -8808.4174376226 -4.57E-02
     3 OT DIIS     0.15E+00    0.8     0.00005876     -8808.4862017585 -6.88E-02
     4 OT DIIS     0.15E+00    0.8     0.00004979     -8808.5436854359 -5.75E-02
     5 OT DIIS     0.15E+00    0.8     0.00004006     -8808.6033841753 -5.97E-02
     6 OT DIIS     0.15E+00    1.0     0.00002840     -8808.6545535483 -5.12E-02
     7 OT DIIS     0.15E+00    1.0     0.00001854     -8808.6820984451 -2.75E-02
     8 OT DIIS     0.15E+00    1.0     0.00001252     -8808.6920692404 -9.97E-03
     9 OT DIIS     0.15E+00    1.0     0.00000891     -8808.6959107408 -3.84E-03

  *** SCF run converged in     9 steps ***


  Electronic density on regular grids:      -4096.0000081507       -0.0000081507
  Core density on regular grids:             4095.9999999985       -0.0000000015
  Total charge density on r-space grids:       -0.0000081522
  Total charge density g-space grids:          -0.0000081522

  Overlap energy of the core charge distribution:               0.00003222726501
  Self energy of the core charge distribution:             -22442.43995950839599
  Core Hamiltonian energy:                                   6579.97334757770295
  Hartree energy:                                            9178.11108768556733
  Exchange-correlation energy:                              -2124.34041872290800

  Total energy:                                             -8808.69591074076925

 ENERGY| Total FORCE_EVAL ( QS ) energy [a.u.]:            -8808.697758482727295

 MD| ***************************************************************************
 MD| Step number                                                               3
 MD| Time [fs]                                                          1.500000
 MD| Conserved quantity [hartree]                            -0.880616479895E+04
 MD| ---------------------------------------------------------------------------
 MD|                                          Instantaneous             Averages
 MD| CPU time per MD step [s]                     11.485866            36.429745
 MD| Energy drift per atom [K]          -0.821808864658E+02  -0.545830716727E+02
 MD| Potential energy [hartree]         -0.880869775848E+04  -0.880853282516E+04
 MD| Kinetic energy [hartree]            0.253295953570E+01   0.237142852964E+01
 MD| Temperature [K]                             347.380849           325.227800
 MD| ***************************************************************************

 Number of electrons:                                                       4096
 Number of occupied orbitals:                                               2048
 Number of molecular orbitals:                                              2048

 Number of orbital functions:                                              20480
 Number of independent orbital functions:                                  20480

 Extrapolation method: PS Nth order
 Extrapolation order:  3


 SCF WAVEFUNCTION OPTIMIZATION

  ----------------------------------- OT ---------------------------------------
  Minimizer      : DIIS                : direct inversion
                                         in the iterative subspace
                                         using   7 DIIS vectors
                                         safer DIIS on
  Preconditioner : FULL_KINETIC        : inversion of T + eS
  Precond_solver : DEFAULT
  stepsize       :    0.15000000                  energy_gap     :    0.20000000
  eps_taylor     :   0.10000E-15                  max_taylor     :             4
  ----------------------------------- OT ---------------------------------------

  Step     Update method      Time    Convergence         Total energy    Change
  ------------------------------------------------------------------------------
     1 OT DIIS     0.15E+00    3.0     0.00008300     -8808.7601023404 -8.81E+03
     2 OT DIIS     0.15E+00    0.8     0.00005686     -8808.7956198738 -3.55E-02
     3 OT DIIS     0.15E+00    0.8     0.00003614     -8808.8258145234 -3.02E-02
     4 OT DIIS     0.15E+00    0.8     0.00002270     -8808.8440348892 -1.82E-02
     5 OT DIIS     0.15E+00    0.8     0.00001489     -8808.8523330649 -8.30E-03
     6 OT DIIS     0.15E+00    0.8     0.00000969     -8808.8563577986 -4.02E-03

  *** SCF run converged in     6 steps ***


  Electronic density on regular grids:      -4096.0000085820       -0.0000085820
  Core density on regular grids:             4096.0000000009        0.0000000009
  Total charge density on r-space grids:       -0.0000085811
  Total charge density g-space grids:          -0.0000085811

  Overlap energy of the core charge distribution:               0.00002346614283
  Self energy of the core charge distribution:             -22442.43995950839599
  Core Hamiltonian energy:                                   6564.27157814160455
  Hartree energy:                                            9189.38286663306098
  Exchange-correlation energy:                              -2120.07086653104079

  Total energy:                                             -8808.85635779862969

 ENERGY| Total FORCE_EVAL ( QS ) energy [a.u.]:            -8808.858124052851053

 MD| ***************************************************************************
 MD| Step number                                                               4
 MD| Time [fs]                                                          2.000000
 MD| Conserved quantity [hartree]                            -0.880616980215E+04
 MD| ---------------------------------------------------------------------------
 MD|                                          Instantaneous             Averages
 MD| CPU time per MD step [s]                      8.235764            29.381250
 MD| Energy drift per atom [K]          -0.832094581050E+02  -0.617396682808E+02
 MD| Potential energy [hartree]         -0.880885812405E+04  -0.880861414989E+04
 MD| Kinetic energy [hartree]            0.268832189848E+01   0.245065187185E+01
 MD| Temperature [K]                             368.687905           336.092826
 MD| ***************************************************************************

 Number of electrons:                                                       4096
 Number of occupied orbitals:                                               2048
 Number of molecular orbitals:                                              2048

 Number of orbital functions:                                              20480
 Number of independent orbital functions:                                  20480

 Extrapolation method: PS Nth order
 Extrapolation order:  3


 SCF WAVEFUNCTION OPTIMIZATION

  ----------------------------------- OT ---------------------------------------
  Minimizer      : DIIS                : direct inversion
                                         in the iterative subspace
                                         using   7 DIIS vectors
                                         safer DIIS on
  Preconditioner : FULL_KINETIC        : inversion of T + eS
  Precond_solver : DEFAULT
  stepsize       :    0.15000000                  energy_gap     :    0.20000000
  eps_taylor     :   0.10000E-15                  max_taylor     :             4
  ----------------------------------- OT ---------------------------------------

  Step     Update method      Time    Convergence         Total energy    Change
  ------------------------------------------------------------------------------
     1 OT DIIS     0.15E+00    3.0     0.00005398     -8808.8521906854 -8.81E+03
     2 OT DIIS     0.15E+00    0.8     0.00004360     -8808.8685908613 -1.64E-02
     3 OT DIIS     0.15E+00    1.0     0.00002876     -8808.8948210096 -2.62E-02
     4 OT DIIS     0.15E+00    1.0     0.00002104     -8808.9082138331 -1.34E-02
     5 OT DIIS     0.15E+00    1.0     0.00001317     -8808.9185206614 -1.03E-02
     6 OT DIIS     0.15E+00    1.0     0.00000843     -8808.9223719952 -3.85E-03

  *** SCF run converged in     6 steps ***


  Electronic density on regular grids:      -4096.0000071800       -0.0000071800
  Core density on regular grids:             4095.9999999999       -0.0000000001
  Total charge density on r-space grids:       -0.0000071801
  Total charge density g-space grids:          -0.0000071801

  Overlap energy of the core charge distribution:               0.00001548084184
  Self energy of the core charge distribution:             -22442.43995950839599
  Core Hamiltonian energy:                                   6547.40961626409990
  Hartree energy:                                            9201.58656634852014
  Exchange-correlation energy:                              -2115.47861058022681

  Total energy:                                             -8808.92237199516239

 ENERGY| Total FORCE_EVAL ( QS ) energy [a.u.]:            -8808.923935033177258

 MD| ***************************************************************************
 MD| Step number                                                               5
 MD| Time [fs]                                                          2.500000
 MD| Conserved quantity [hartree]                            -0.880617229036E+04
 MD| ---------------------------------------------------------------------------
 MD|                                          Instantaneous             Averages
 MD| CPU time per MD step [s]                      9.224823            25.349964
 MD| Energy drift per atom [K]          -0.837209902625E+02  -0.661359326771E+02
 MD| Potential energy [hartree]         -0.880892393503E+04  -0.880867610692E+04
 MD| Kinetic energy [hartree]            0.275164466957E+01   0.251085043139E+01
 MD| Temperature [K]                             377.372259           344.348713
 MD| ***************************************************************************

 Number of electrons:                                                       4096
 Number of occupied orbitals:                                               2048
 Number of molecular orbitals:                                              2048

 Number of orbital functions:                                              20480
 Number of independent orbital functions:                                  20480

 Extrapolation method: PS Nth order
 Extrapolation order:  3


 SCF WAVEFUNCTION OPTIMIZATION

  ----------------------------------- OT ---------------------------------------
  Minimizer      : DIIS                : direct inversion
                                         in the iterative subspace
                                         using   7 DIIS vectors
                                         safer DIIS on
  Preconditioner : FULL_KINETIC        : inversion of T + eS
  Precond_solver : DEFAULT
  stepsize       :    0.15000000                  energy_gap     :    0.20000000
  eps_taylor     :   0.10000E-15                  max_taylor     :             4
  ----------------------------------- OT ---------------------------------------

  Step     Update method      Time    Convergence         Total energy    Change
  ------------------------------------------------------------------------------
     1 OT DIIS     0.15E+00    3.0     0.00004459     -8808.8152215680 -8.81E+03
     2 OT DIIS     0.15E+00    0.8     0.00003657     -8808.8265175051 -1.13E-02
     3 OT DIIS     0.15E+00    0.8     0.00002088     -8808.8466694919 -2.02E-02
     4 OT DIIS     0.15E+00    0.8     0.00001310     -8808.8539212402 -7.25E-03
     5 OT DIIS     0.15E+00    0.8     0.00000884     -8808.8567200005 -2.80E-03

  *** SCF run converged in     5 steps ***


  Electronic density on regular grids:      -4096.0000062625       -0.0000062625
  Core density on regular grids:             4095.9999999983       -0.0000000017
  Total charge density on r-space grids:       -0.0000062642
  Total charge density g-space grids:          -0.0000062642

  Overlap energy of the core charge distribution:               0.00000971625736
  Self energy of the core charge distribution:             -22442.43995950839599
  Core Hamiltonian energy:                                   6531.17272537813187
  Hartree energy:                                            9213.44168886955413
  Exchange-correlation energy:                              -2111.03118445608698

  Total energy:                                             -8808.85672000054183

 ENERGY| Total FORCE_EVAL ( QS ) energy [a.u.]:            -8808.858096121271956

 MD| ***************************************************************************
 MD| Step number                                                               6
 MD| Time [fs]                                                          3.000000
 MD| Conserved quantity [hartree]                            -0.880617011406E+04
 MD| ---------------------------------------------------------------------------
 MD|                                          Instantaneous             Averages
 MD| CPU time per MD step [s]                      7.399399            22.358203
 MD| Energy drift per atom [K]          -0.832735801695E+02  -0.689922072592E+02
 MD| Potential energy [hartree]         -0.880885809612E+04  -0.880870643845E+04
 MD| Kinetic energy [hartree]            0.268798206253E+01   0.254037236992E+01
 MD| Temperature [K]                             368.641298           348.397477
 MD| ***************************************************************************

 Number of electrons:                                                       4096
 Number of occupied orbitals:                                               2048
 Number of molecular orbitals:                                              2048

 Number of orbital functions:                                              20480
 Number of independent orbital functions:                                  20480

 Extrapolation method: PS Nth order
 Extrapolation order:  3


 SCF WAVEFUNCTION OPTIMIZATION

  ----------------------------------- OT ---------------------------------------
  Minimizer      : DIIS                : direct inversion
                                         in the iterative subspace
                                         using   7 DIIS vectors
                                         safer DIIS on
  Preconditioner : FULL_KINETIC        : inversion of T + eS
  Precond_solver : DEFAULT
  stepsize       :    0.15000000                  energy_gap     :    0.20000000
  eps_taylor     :   0.10000E-15                  max_taylor     :             4
  ----------------------------------- OT ---------------------------------------

  Step     Update method      Time    Convergence         Total energy    Change
  ------------------------------------------------------------------------------
     1 OT DIIS     0.15E+00    3.0     0.00004551     -8808.6384763371 -8.81E+03
     2 OT DIIS     0.15E+00    0.8     0.00003729     -8808.6502432503 -1.18E-02
     3 OT DIIS     0.15E+00    0.8     0.00002023     -8808.6710753829 -2.08E-02
     4 OT DIIS     0.15E+00    0.8     0.00001308     -8808.6771450075 -6.07E-03
     5 OT DIIS     0.15E+00    0.8     0.00000755     -8808.6802141112 -3.07E-03

  *** SCF run converged in     5 steps ***


  Electronic density on regular grids:      -4096.0000050933       -0.0000050933
  Core density on regular grids:             4095.9999999989       -0.0000000011
  Total charge density on r-space grids:       -0.0000050945
  Total charge density g-space grids:          -0.0000050945

  Overlap energy of the core charge distribution:               0.00000622092131
  Self energy of the core charge distribution:             -22442.43995950839599
  Core Hamiltonian energy:                                   6517.03118069661468
  Hartree energy:                                            9223.86272568767527
  Exchange-correlation energy:                              -2107.13416720806345

  Total energy:                                             -8808.68021411124755

 ENERGY| Total FORCE_EVAL ( QS ) energy [a.u.]:            -8808.681147743554902

 MD| ***************************************************************************
 MD| Step number                                                               7
 MD| Time [fs]                                                          3.500000
 MD| Conserved quantity [hartree]                            -0.880616595825E+04
 MD| ---------------------------------------------------------------------------
 MD|                                          Instantaneous             Averages
 MD| CPU time per MD step [s]                      7.415415            20.223519
 MD| Energy drift per atom [K]          -0.824192189415E+02  -0.709103517852E+02
 MD| Potential energy [hartree]         -0.880868114774E+04  -0.880870282549E+04
 MD| Kinetic energy [hartree]            0.251518949294E+01   0.253677481606E+01
 MD| Temperature [K]                             344.943790           347.904093
 MD| ***************************************************************************

 Number of electrons:                                                       4096
 Number of occupied orbitals:                                               2048
 Number of molecular orbitals:                                              2048

 Number of orbital functions:                                              20480
 Number of independent orbital functions:                                  20480

 Extrapolation method: PS Nth order
 Extrapolation order:  3


 SCF WAVEFUNCTION OPTIMIZATION

  ----------------------------------- OT ---------------------------------------
  Minimizer      : DIIS                : direct inversion
                                         in the iterative subspace
                                         using   7 DIIS vectors
                                         safer DIIS on
  Preconditioner : FULL_KINETIC        : inversion of T + eS
  Precond_solver : DEFAULT
  stepsize       :    0.15000000                  energy_gap     :    0.20000000
  eps_taylor     :   0.10000E-15                  max_taylor     :             4
  ----------------------------------- OT ---------------------------------------

  Step     Update method      Time    Convergence         Total energy    Change
  ------------------------------------------------------------------------------
     1 OT DIIS     0.15E+00    3.0     0.00004640     -8808.4083499264 -8.81E+03
     2 OT DIIS     0.15E+00    0.8     0.00003771     -8808.4205192564 -1.22E-02
     3 OT DIIS     0.15E+00    0.8     0.00002094     -8808.4409405957 -2.04E-02
     4 OT DIIS     0.15E+00    0.8     0.00001360     -8808.4479497069 -7.01E-03
     5 OT DIIS     0.15E+00    0.8     0.00001073     -8808.4504245358 -2.47E-03
     6 OT DIIS     0.15E+00    0.8     0.00000737     -8808.4530066087 -2.58E-03

  *** SCF run converged in     6 steps ***


  Electronic density on regular grids:      -4096.0000038469       -0.0000038469
  Core density on regular grids:             4096.0000000008        0.0000000008
  Total charge density on r-space grids:       -0.0000038460
  Total charge density g-space grids:          -0.0000038460

  Overlap energy of the core charge distribution:               0.00000436187185
  Self energy of the core charge distribution:             -22442.43995950839599
  Core Hamiltonian energy:                                   6506.06509238001217
  Hartree energy:                                            9232.01158668381868
  Exchange-correlation energy:                              -2104.08973052597185

  Total energy:                                             -8808.45300660866451

 ENERGY| Total FORCE_EVAL ( QS ) energy [a.u.]:            -8808.454571351809136

 MD| ***************************************************************************
 MD| Step number                                                               8
 MD| Time [fs]                                                          4.000000
 MD| Conserved quantity [hartree]                            -0.880616115129E+04
 MD| ---------------------------------------------------------------------------
 MD|                                          Instantaneous             Averages
 MD| CPU time per MD step [s]                      8.175645            18.717535
 MD| Energy drift per atom [K]          -0.814309929648E+02  -0.722254319326E+02
 MD| Potential energy [hartree]         -0.880845457135E+04  -0.880867179372E+04
 MD| Kinetic energy [hartree]            0.229342005802E+01   0.250635547131E+01
 MD| Temperature [K]                             314.529386           343.732255
 MD| ***************************************************************************

 Number of electrons:                                                       4096
 Number of occupied orbitals:                                               2048
 Number of molecular orbitals:                                              2048

 Number of orbital functions:                                              20480
 Number of independent orbital functions:                                  20480

 Extrapolation method: PS Nth order
 Extrapolation order:  3


 SCF WAVEFUNCTION OPTIMIZATION

  ----------------------------------- OT ---------------------------------------
  Minimizer      : DIIS                : direct inversion
                                         in the iterative subspace
                                         using   7 DIIS vectors
                                         safer DIIS on
  Preconditioner : FULL_KINETIC        : inversion of T + eS
  Precond_solver : DEFAULT
  stepsize       :    0.15000000                  energy_gap     :    0.20000000
  eps_taylor     :   0.10000E-15                  max_taylor     :             4
  ----------------------------------- OT ---------------------------------------

  Step     Update method      Time    Convergence         Total energy    Change
  ------------------------------------------------------------------------------
     1 OT DIIS     0.15E+00    3.0     0.00004050     -8808.2146955068 -8.81E+03
     2 OT DIIS     0.15E+00    0.8     0.00003407     -8808.2241574590 -9.46E-03
     3 OT DIIS     0.15E+00    0.8     0.00001718     -8808.2450181892 -2.09E-02
     4 OT DIIS     0.15E+00    0.8     0.00001245     -8808.2495173447 -4.50E-03
     5 OT DIIS     0.15E+00    0.8     0.00000891     -8808.2522162901 -2.70E-03

  *** SCF run converged in     5 steps ***


  Electronic density on regular grids:      -4096.0000022243       -0.0000022243
  Core density on regular grids:             4096.0000000016        0.0000000016
  Total charge density on r-space grids:       -0.0000022227
  Total charge density g-space grids:          -0.0000022227

  Overlap energy of the core charge distribution:               0.00000353692330
  Self energy of the core charge distribution:             -22442.43995950839599
  Core Hamiltonian energy:                                   6498.75943480214482
  Hartree energy:                                            9237.49747744131309
  Exchange-correlation energy:                              -2102.06917256206634

  Total energy:                                             -8808.25221629008229

 ENERGY| Total FORCE_EVAL ( QS ) energy [a.u.]:            -8808.253873859193845

 MD| ***************************************************************************
 MD| Step number                                                               9
 MD| Time [fs]                                                          4.500000
 MD| Conserved quantity [hartree]                            -0.880615635624E+04
 MD| ---------------------------------------------------------------------------
 MD|                                          Instantaneous             Averages
 MD| CPU time per MD step [s]                      7.385807            17.458454
 MD| Energy drift per atom [K]          -0.804452132756E+02  -0.731387409707E+02
 MD| Potential energy [hartree]         -0.880825387386E+04  -0.880862535818E+04
 MD| Kinetic energy [hartree]            0.209751762294E+01   0.246092904371E+01
 MD| Temperature [K]                             287.662492           337.502281
 MD| ***************************************************************************

 Number of electrons:                                                       4096
 Number of occupied orbitals:                                               2048
 Number of molecular orbitals:                                              2048

 Number of orbital functions:                                              20480
 Number of independent orbital functions:                                  20480

 Extrapolation method: PS Nth order
 Extrapolation order:  3


 SCF WAVEFUNCTION OPTIMIZATION

  ----------------------------------- OT ---------------------------------------
  Minimizer      : DIIS                : direct inversion
                                         in the iterative subspace
                                         using   7 DIIS vectors
                                         safer DIIS on
  Preconditioner : FULL_KINETIC        : inversion of T + eS
  Precond_solver : DEFAULT
  stepsize       :    0.15000000                  energy_gap     :    0.20000000
  eps_taylor     :   0.10000E-15                  max_taylor     :             4
  ----------------------------------- OT ---------------------------------------

  Step     Update method      Time    Convergence         Total energy    Change
  ------------------------------------------------------------------------------
     1 OT DIIS     0.15E+00    3.0     0.00004012     -8808.1037275029 -8.81E+03
     2 OT DIIS     0.15E+00    0.8     0.00003342     -8808.1129250588 -9.20E-03
     3 OT DIIS     0.15E+00    0.8     0.00002048     -8808.1296918421 -1.68E-02
     4 OT DIIS     0.15E+00    0.8     0.00001263     -8808.1379701315 -8.28E-03
     5 OT DIIS     0.15E+00    0.8     0.00001017     -8808.1402116144 -2.24E-03
     6 OT DIIS     0.15E+00    0.8     0.00000715     -8808.1425472092 -2.34E-03

  *** SCF run converged in     6 steps ***


  Electronic density on regular grids:      -4096.0000006753       -0.0000006753
  Core density on regular grids:             4096.0000000008        0.0000000008
  Total charge density on r-space grids:       -0.0000006746
  Total charge density g-space grids:          -0.0000006746

  Overlap energy of the core charge distribution:               0.00000340787799
  Self energy of the core charge distribution:             -22442.43995950839599
  Core Hamiltonian energy:                                   6495.52247344485477
  Hartree energy:                                            9239.94935168040502
  Exchange-correlation energy:                              -2101.17441623397826

  Total energy:                                             -8808.14254720923782

 ENERGY| Total FORCE_EVAL ( QS ) energy [a.u.]:            -8808.143948289523905

 MD| ***************************************************************************
 MD| Step number                                                              10
 MD| Time [fs]                                                          5.000000
 MD| Conserved quantity [hartree]                            -0.880615520872E+04
 MD| ---------------------------------------------------------------------------
 MD|                                          Instantaneous             Averages
 MD| CPU time per MD step [s]                      8.163390            16.528948
 MD| Energy drift per atom [K]          -0.802093039017E+02  -0.738457972638E+02
 MD| Potential energy [hartree]         -0.880814394829E+04  -0.880857721719E+04
 MD| Kinetic energy [hartree]            0.198873957033E+01   0.241371009637E+01
 MD| Temperature [K]                             272.744207           331.026474
 MD| ***************************************************************************

 -------------------------------------------------------------------------------
 -                                                                             -
 -                                DBCSR STATISTICS                             -
 -                                                                             -
 -------------------------------------------------------------------------------
 COUNTER                                    TOTAL       BLAS       SMM       ACC
 flops     9 x    32 x    32          13287555072     100.0%      0.0%      0.0%
 flops    22 x    32 x    32          16240345088     100.0%      0.0%      0.0%
 flops    32 x    64 x    64         678067961856     100.0%      0.0%      0.0%
 flops    96 x    64 x    64        2034203885568     100.0%      0.0%      0.0%
 flops    32 x    64 x   640        3648037847040     100.0%      0.0%      0.0%
 flops   560 x    64 x    64        5242544455680     100.0%      0.0%      0.0%
 flops   578 x    64 x    64        5411054813184     100.0%      0.0%      0.0%
 flops   582 x    64 x    64        5448501559296     100.0%      0.0%      0.0%
 flops   600 x    64 x    64        5617011916800     100.0%      0.0%      0.0%
 flops     9 x     9 x    64        5648350040064     100.0%      0.0%      0.0%
 flops   680 x    64 x    64        6365946839040     100.0%      0.0%      0.0%
 flops   698 x    64 x    64        6534457196544     100.0%      0.0%      0.0%
 flops   702 x    64 x    64        6571903942656     100.0%      0.0%      0.0%
 flops   720 x    64 x    64        6740414300160     100.0%      0.0%      0.0%
 flops     9 x    22 x    64        7855827369984     100.0%      0.0%      0.0%
 flops    22 x     9 x    64        7866447519744     100.0%      0.0%      0.0%
 flops   569 x    64 x    64       10653599268864     100.0%      0.0%      0.0%
 flops    96 x    64 x   640       10944113541120     100.0%      0.0%      0.0%
 flops    22 x    22 x    64       11004752822272     100.0%      0.0%      0.0%
 flops   591 x    64 x    64       11065513476096     100.0%      0.0%      0.0%
 flops    64 x    64 x    64       11753178005504     100.0%      0.0%      0.0%
 flops   560 x    64 x   640       11931956019200     100.0%      0.0%      0.0%
 flops   578 x    64 x   640       12315483176960     100.0%      0.0%      0.0%
 flops   582 x    64 x   640       12400711434240     100.0%      0.0%      0.0%
 flops   600 x    64 x   640       12784238592000     100.0%      0.0%      0.0%
 flops   689 x    64 x    64       12900404035584     100.0%      0.0%      0.0%
 flops   711 x    64 x    64       13312318242816     100.0%      0.0%      0.0%
 flops   680 x    64 x   640       14488803737600     100.0%      0.0%      0.0%
 flops   698 x    64 x   640       14872330895360     100.0%      0.0%      0.0%
 flops   702 x    64 x   640       14957559152640     100.0%      0.0%      0.0%
 flops   720 x    64 x   640       15341086310400     100.0%      0.0%      0.0%
 flops     9 x    32 x     9       23722505551872     100.0%      0.0%      0.0%
 flops   569 x    64 x   640       24247439196160     100.0%      0.0%      0.0%
 flops   591 x    64 x   640       25184950026240     100.0%      0.0%      0.0%
 flops   689 x    64 x   640       29361134632960     100.0%      0.0%      0.0%
 flops   711 x    64 x   640       30298645463040     100.0%      0.0%      0.0%
 flops    22 x    32 x     9       33153656684544     100.0%      0.0%      0.0%
 flops     9 x    32 x    22       33153656684544     100.0%      0.0%      0.0%
 flops    22 x    32 x    22       46115724689408     100.0%      0.0%      0.0%
 flops    64 x    64 x   640       63232656015360     100.0%      0.0%      0.0%
 flops inhomo. stacks                           0       0.0%      0.0%      0.0%
 flops total                       574.888715E+12     100.0%      0.0%      0.0%
 flops max/rank                      1.133443E+12     100.0%      0.0%      0.0%
 matmuls inhomo. stacks                         0       0.0%      0.0%      0.0%
 matmuls total                        12706179200     100.0%      0.0%      0.0%
 number of processed stacks             121133056     100.0%      0.0%      0.0%
 average stack size                                   104.9       0.0       0.0
 marketing flops                     1.147134E+15
 -------------------------------------------------------------------------------
 # multiplications                           2431
 max memory usage/rank             344.313856E+06
 # max total images/rank                        2
 # max 3D layers                                1
 # MPI messages exchanged                75924992
 MPI messages size (bytes):
  total size                        40.178769E+12
  min size                           0.000000E+00
  max size                           6.553600E+06
  average size                     529.190312E+03
 MPI breakdown and total messages size (bytes):
             size <=      128              507232                        0
       128 < size <=     8192                   0                        0
      8192 < size <=    32768            21509280             704729579520
     32768 < size <=   131072            13364224             875837784064
    131072 < size <=  4194304            38528512           25387824241184
   4194304 < size <= 16777216             2015744           13210379878400
  16777216 < size                               0                        0
 -------------------------------------------------------------------------------

 *** WARNING in dbcsr_mm.F:294 :: Using a non-square number of MPI ranks ***
 *** might lead to poor performance. Used ranks: 512 Suggested: 529 1024 ***

 -------------------------------------------------------------------------------
 -                                                                             -
 -                      DBCSR MESSAGE PASSING PERFORMANCE                      -
 -                                                                             -
 -------------------------------------------------------------------------------
 ROUTINE             CALLS      AVE VOLUME [Bytes]
 MP_Bcast               41                     12.
 MP_Allreduce        13011                     67.
 MP_Alltoall          9270                 395450.
 MP_ISend           308916                 257597.
 MP_IRecv           308916                 257659.
 -------------------------------------------------------------------------------

 -------------------------------------------------------------------------------
 -                                                                             -
 -                                GRID STATISTICS                              -
 -                                                                             -
 -------------------------------------------------------------------------------
 LP    KERNEL             BACKEND                              COUNT     PERCENT
 1     collocate ortho    REF                              135745301      20.79%
 1     integrate ortho    REF                              130493488      19.98%
 2     integrate ortho    REF                               88995618      13.63%
 2     collocate ortho    REF                               84560451      12.95%
 0     collocate ortho    REF                               75171698      11.51%
 0     integrate ortho    REF                               68664071      10.51%
 3     integrate ortho    REF                               26282166       4.02%
 3     collocate ortho    REF                               20755016       3.18%
 0     collocate general  REF                                8650752       1.32%
 1     integrate general  REF                                8650752       1.32%
 4     integrate ortho    REF                                3293394       0.50%
 4     collocate ortho    REF                                1638196       0.25%
 5     integrate ortho    REF                                 141925       0.02%
 -------------------------------------------------------------------------------

 MEMORY| Estimated peak process memory [MiB]                                 326

 -------------------------------------------------------------------------------
 -                                                                             -
 -                         MESSAGE PASSING PERFORMANCE                         -
 -                                                                             -
 -------------------------------------------------------------------------------

 ROUTINE             CALLS      AVE VOLUME [Bytes]
 MP_Group                4
 MP_Bcast             4017                  57942.
 MP_Allreduce        11016                   1385.
 MP_Sync              1660
 MP_Alltoall          2222
 MP_ISendRecv       259588                   8208.
 MP_Wait            272938
 MP_comm_split          66
 MP_ISend            31042                  40481.
 MP_IRecv            31042                  40481.
 -------------------------------------------------------------------------------


 -------------------------------------------------------------------------------
 -                                                                             -
 -                           R E F E R E N C E S                               -
 -                                                                             -
 -------------------------------------------------------------------------------
 
 CP2K version 8.2, the CP2K developers group (2021).
 CP2K is freely available from https://www.cp2k.org/ .

 Kuehne,Thomas D.; Iannuzzi,Marcella; Del Ben,Mauro;
 Rybkin,Vladimir V.; Seewald,Patrick; Stein,Frederick; Laino,Teodoro;
 Khaliullin,Rustam Z.; Schuett,Ole; Schiffmann,Florian; Golze,Dorothea;
 Wilhelm,Jan; Chulkov,Sergey; Bani-Hashemian,Mohammad Hossein;
 Weber,Valery; Borstnik,Urban; Taillefumier,Mathieu;
 Jakobovits,Alice Shoshana; Lazzaro,Alfio; Pabst,Hans; Mueller,Tiziano;
 Schade,Robert; Guidon,Manuel; Andermatt,Samuel; Holmberg,Nico;
 Schenter,Gregory K.; Hehn,Anna; Bussy,Augustin; Belleflamme,Fabian;
 Tabacchi,Gloria; Gloess,Andreas; Lass,Michael; Bethune,Iain;
 Mundy,Christopher J.; Plessl,Christian; Watkins,Matt;
 VandeVondele,Joost; Krack,Matthias; Hutter,Juerg. 
 The Journal of Chemical Physics, 152 (19), (2020). 
 CP2K: An electronic structure and molecular dynamics software package -
 Quickstep: Efficient and accurate electronic structure calculations.
 https://doi.org/10.1063/5.0007045

 Schuett, Ole; Messmer, Peter; Hutter, Juerg; VandeVondele, Joost. 
 Electronic Structure Calculations on Graphics Processing Units, John
 Wiley & Sons, Ltd, 173-190 (2016). 
 GPU-Accelerated Sparse Matrix-Matrix Multiplication for
 Linear Scaling Density Functional Theory.
 https://doi.org/10.1002/9781118670712.ch8

 Borstnik, U; VandeVondele, J; Weber, V; Hutter, J. 
 PARALLEL COMPUTING, 40 (5-6), 47-58 (2014). 
 Sparse matrix multiplication: The distributed block-compressed sparse
 row library.
 https://doi.org/10.1016/j.parco.2014.03.012

 Hutter, J; Iannuzzi, M; Schiffmann, F; VandeVondele, J. 
 WIREs Comput Mol Sci., 4 (1), 15-25 (2014). 
 CP2K: atomistic simulations of condensed matter systems.
 https://doi.org/10.1002/wcms.1159

 Marek, A; Blum, V; Johanni, R; Havu, V; Lang, B; Auckenthaler, T;
 Heinecke, A; Bungartz, H; Lederer, H. 
 Journal of Physics: Condensed Matter, 26 (21), (2014). 
 The ELPA library: scalable parallel eigenvalue solutions for
 electronic structure
 theory and computational science.
 https://doi.org/10.1088/0953-8984/26/21/213201

 Krack, M. 
 THEORETICAL CHEMISTRY ACCOUNTS, 114 (1-3), 145-152 (2005). 
 Pseudopotentials for H to Kr optimized for gradient-corrected
 exchange-correlation functionals.
 https://doi.org/10.1007/s00214-005-0655-y

 VandeVondele, J; Krack, M; Mohamed, F; Parrinello, M; Chassaing, T;
 Hutter, J. COMPUTER PHYSICS COMMUNICATIONS, 167 (2), 103-128 (2005). 
 QUICKSTEP: Fast and accurate density functional calculations using a
 mixed Gaussian and plane waves approach.
 https://doi.org/10.1016/j.cpc.2004.12.014

 Frigo, M; Johnson, SG. 
 PROCEEDINGS OF THE IEEE, 93 (2), 216-231 (2005). 
 The design and implementation of FFTW3.
 https://doi.org/10.1109/JPROC.2004.840301

 VandeVondele, J; Hutter, J. 
 JOURNAL OF CHEMICAL PHYSICS, 118 (10), 4365-4369 (2003). 
 An efficient orbital transformation method for electronic structure
 calculations.
 https://doi.org/10.1063/1.1543154

 Hartwigsen, C; Goedecker, S; Hutter, J. 
 PHYSICAL REVIEW B, 58 (7), 3641-3662 (1998). 
 Relativistic separable dual-space Gaussian pseudopotentials from H to Rn.
 https://doi.org/10.1103/PhysRevB.58.3641

 Lippert, G; Hutter, J; Parrinello, M. 
 MOLECULAR PHYSICS, 92 (3), 477-487 (1997). 
 A hybrid Gaussian and plane wave density functional scheme.
 https://doi.org/10.1080/002689797170220

 Goedecker, S; Teter, M; Hutter, J. 
 PHYSICAL REVIEW B, 54 (3), 1703-1710 (1996). 
 Separable dual-space Gaussian pseudopotentials.
 https://doi.org/10.1103/PhysRevB.54.1703


 -------------------------------------------------------------------------------
 -                                                                             -
 -                                T I M I N G                                  -
 -                                                                             -
 -------------------------------------------------------------------------------
 SUBROUTINE                       CALLS  ASD         SELF TIME        TOTAL TIME
                                MAXIMUM       AVERAGE  MAXIMUM  AVERAGE  MAXIMUM
 CP2K                                 1  1.0    0.225    0.232  165.772  165.773
 qs_mol_dyn_low                       1  2.0    0.004    0.004  165.328  165.345
 qs_forces                           11  3.9    0.004    0.005  165.197  165.198
 qs_energies                         11  4.9    0.002    0.002  162.860  162.872
 scf_env_do_scf                      11  5.9    0.001    0.001  137.402  137.403
 scf_env_do_scf_inner_loop          116  6.6    0.003    0.008  107.305  107.306
 velocity_verlet                     10  3.0    0.002    0.002   90.064   90.066
 qs_scf_new_mos                     116  7.6    0.001    0.001   85.062   85.356
 qs_scf_loop_do_ot                  116  8.6    0.001    0.001   85.062   85.355
 ot_scf_mini                        116  9.6    0.004    0.004   80.829   81.002
 dbcsr_multiply_generic            2431 12.5    0.141    0.148   79.217   79.766
 multiply_cannon                   2431 13.5    0.289    0.311   66.606   68.386
 multiply_cannon_loop              2431 14.5    0.428    0.456   65.215   66.376
 multiply_cannon_multrec          77792 15.5   43.776   47.098   43.786   47.108
 ot_mini                            116 10.6    0.002    0.003   45.913   46.079
 init_scf_loop                       11  6.9    0.000    0.001   30.031   30.032
 prepare_preconditioner              11  7.9    0.000    0.000   27.638   27.661
 make_preconditioner                 11  8.9    0.000    0.001   27.638   27.661
 make_full_inverse_cholesky          11  9.9    0.000    0.001   26.786   26.845
 qs_ot_get_derivative               116 11.6    0.001    0.001   24.139   24.330
 mp_waitall_1                    769642 15.7   19.158   23.780   19.158   23.780
 apply_preconditioner_dbcsr         127 12.6    0.000    0.000   22.379   22.858
 apply_single                       127 13.6    0.000    0.000   22.379   22.858
 qs_ot_get_p                        127 10.4    0.001    0.002   22.375   22.681
 ot_diis_step                       116 11.6    0.009    0.010   21.585   21.585
 rebuild_ks_matrix                  127  8.3    0.001    0.001   16.791   16.993
 qs_ks_build_kohn_sham_matrix       127  9.3    0.017    0.020   16.790   16.992
 qs_ot_p2m_diag                      66 11.2    0.030    0.037   16.726   16.735
 cp_dbcsr_syevd                      66 12.2    0.007    0.008   16.028   16.035
 cp_fm_diag_elpa                     66 13.2    0.000    0.001   15.875   15.879
 cp_fm_redistribute_end              66 14.2   14.627   15.771   14.677   15.776
 cp_fm_diag_elpa_base                66 14.2    1.073   15.300    1.086   15.501
 qs_ks_update_qs_env                127  7.6    0.002    0.003   15.167   15.356
 qs_energies_init_hamiltonians       11  5.9    0.000    0.001   14.850   14.852
 cp_fm_cholesky_invert               11 10.9   14.752   14.759   14.752   14.759
 qs_env_update_s_mstruct             11  6.9    0.000    0.000   14.480   14.579
 qs_create_task_list                 11  7.9    0.000    0.001   13.676   13.809
 generate_qs_task_list               11  8.9    0.043    0.066   13.676   13.809
 distribute_tasks                    11  9.9    0.012    0.014   13.627   13.759
 create_local_tasks                  11 10.9    0.004    0.006   13.412   13.502
 mp_alltoall_l11v                    11 11.9   13.407   13.496   13.407   13.496
 mp_irecv_dv                     161357 16.5    6.837   13.273    6.837   13.273
 multiply_cannon_metrocomm3       77792 15.5    0.159    0.168    8.121   11.933
 multiply_cannon_metrocomm4       75361 15.5    0.171    0.179    6.138   11.923
 qs_rho_update_rho                  127  7.7    0.001    0.001   10.375   10.410
 calculate_rho_elec                 127  8.7    0.021    0.022   10.374   10.409
 init_scf_run                        11  5.9    0.000    0.001    9.092    9.093
 scf_env_initial_rho_setup           11  6.9    0.000    0.000    9.092    9.093
 make_m2s                          4862 13.5    0.109    0.122    8.858    9.057
 qs_ot_get_derivative_diag           62 12.2    0.001    0.001    8.702    8.833
 cp_fm_cholesky_decompose            22 10.9    8.175    8.205    8.175    8.205
 make_images                       4862 14.5    0.434    0.669    7.449    7.835
 multiply_cannon_metrocomm1       77792 15.5    0.095    0.102    5.278    7.459
 rs_pw_transfer                    1038 11.9    0.012    0.017    6.487    7.291
 sum_up_and_integrate               127 10.3    0.009    0.015    7.213    7.224
 integrate_v_rspace                 127 11.3    0.004    0.005    7.204    7.215
 wfi_extrapolate                     11  7.9    0.001    0.002    6.524    6.524
 mp_alltoall_d11v                  2299 14.0    6.218    6.490    6.218    6.490
 density_rs2pw                      127  9.7    0.005    0.006    5.562    6.379
 qs_ot_get_derivative_taylor         54 13.0    0.001    0.001    5.801    5.875
 dbcsr_complete_redistribute        361 12.5    0.269    0.286    5.597    5.845
 make_images_data                  4862 15.5    0.079    0.088    4.568    5.023
 hybrid_alltoall_any               5031 16.4    0.082    0.910    4.322    4.940
 copy_dbcsr_to_fm                   169 11.5    0.003    0.004    4.869    4.940
 calculate_dm_sparse                127  9.5    0.001    0.001    4.726    4.924
 qs_ot_get_orbitals                 116 10.6    0.000    0.001    4.365    4.469
 grid_collocate_task_list           127  9.7    4.108    4.450    4.108    4.450
 transfer_dbcsr_to_fm                11 10.9    0.000    0.000    4.220    4.250
 pw_transfer                       1535 11.6    0.098    0.115    3.839    3.924
 fft_wrap_pw1pw2                   1281 12.7    0.007    0.008    3.709    3.802
 potential_pw2rs                    127 12.3    0.004    0.005    3.538    3.566
 mp_sum_l                         11831 13.4    2.867    3.465    2.867    3.465
 cp_gemm                             81  9.0    0.000    0.000    3.332    3.352
 cp_gemm_fm_gemm                     81 10.0    0.001    0.002    3.332    3.352
 cp_fm_gemm                          81 11.0    3.330    3.351    3.330    3.351
 -------------------------------------------------------------------------------

 The number of warnings for this run is : 2
 
 -------------------------------------------------------------------------------
  **** **** ******  **  PROGRAM ENDED AT                 2022-01-17 17:03:44.998
 ***** ** ***  *** **   PROGRAM RAN ON                                 nid005010
 **    ****   ******    PROGRAM RAN BY                                    hjudge
 ***** **    ** ** **   PROGRAM PROCESS ID                                 97566
  **** **  *******  **  PROGRAM STOPPED IN /mnt/lustre/a2fs-work2/work/z19/z19/h
                                           judge/CUG/archer2/CPU/CP2K/H2O-512/8N
                                           ODES/128CPN/2THREADS
