 DBCSR| CPU Multiplication driver                                           BLAS
 DBCSR| Multrec recursion limit                                              512
 DBCSR| Multiplication stack size                                           1000
 DBCSR| Maximum elements for images                                    UNLIMITED
 DBCSR| Multiplicative factor virtual images                                   1
 DBCSR| Use multiplication densification                                       T
 DBCSR| Multiplication size stacks                                             3
 DBCSR| Use memory pool for CPU allocation                                     F
 DBCSR| Number of 3D layers                                               SINGLE
 DBCSR| Use MPI memory allocation                                              F
 DBCSR| Use RMA algorithm                                                      F
 DBCSR| Use Communication thread                                               T
 DBCSR| Communication thread load                                             30
 DBCSR| MPI: My node id                                                        0
 DBCSR| MPI: Number of nodes                                                  16
 DBCSR| OMP: Current number of threads                                        16
 DBCSR| OMP: Max number of threads                                            16
 DBCSR| Split modifier for TAS multiplication algorithm                  1.0E+00


  **** **** ******  **  PROGRAM STARTED AT               2022-01-17 15:25:00.602
 ***** ** ***  *** **   PROGRAM STARTED ON                             nid002374
 **    ****   ******    PROGRAM STARTED BY                                hjudge
 ***** **    ** ** **   PROGRAM PROCESS ID                                 56922
  **** **  *******  **  PROGRAM STARTED IN /mnt/lustre/a2fs-work2/work/z19/z19/h
                                           judge/CUG/archer2/CPU/CP2K/H2O-512/2N
                                           ODES/128CPN/16THREADS

 CP2K| version string:                                          CP2K version 8.2
 CP2K| source code revision number:                                  git:310b7ab
 CP2K| cp2kflags: omp libint fftw3 libxc elpa parallel mpi3 scalapack plumed2   
 CP2K| is freely available from                            https://www.cp2k.org/
 CP2K| Program compiled at                          Thu Dec  2 10:30:45 GMT 2021
 CP2K| Program compiled on                                                  ln02
 CP2K| Program compiled for                                              ARCHER2
 CP2K| Data directory path         /work/y07/shared/apps/core/cp2k/cp2k-8.2/data
 CP2K| Input file name                                               H2O-512.inp

 GLOBAL| Force Environment number                                              1
 GLOBAL| Basis set file name                                      GTH_BASIS_SETS
 GLOBAL| Potential file name                                           POTENTIAL
 GLOBAL| MM Potential file name                                     MM_POTENTIAL
 GLOBAL| Coordinate file name                                      __STD_INPUT__
 GLOBAL| Method name                                                        CP2K
 GLOBAL| Project name                                                    H2O-512
 GLOBAL| Run type                                                             MD
 GLOBAL| FFT library                                                       FFTW3
 GLOBAL| Diagonalization library                                            ELPA
 GLOBAL| Minimum number of eigenvectors for ELPA usage                        16
 GLOBAL| Orthonormality check for eigenvectors                          DISABLED
 GLOBAL| Matrix multiplication library                                    SCALAP
 GLOBAL| All-to-all communication in single precision                          F
 GLOBAL| FFTs using library dependent lengths                                  F
 GLOBAL| Grid backend                                                       AUTO
 GLOBAL| Global print level                                                  LOW
 GLOBAL| MPI I/O enabled                                                       T
 GLOBAL| Total number of message passing processes                            16
 GLOBAL| Number of threads for this process                                   16
 GLOBAL| This output is from process                                           0
 GLOBAL| CPU model name                          AMD EPYC 7742 64-Core Processor
 GLOBAL| CPUID                                                              1002

 MEMORY| system memory details [Kb]
 MEMORY|                        rank 0           min           max       average
 MEMORY| MemTotal            263528084     263528084     263528088     263528086
 MEMORY| MemFree             251929012     251929012     253048376     252488694
 MEMORY| Buffers                 27620         17564         27620         22592
 MEMORY| Cached                1504724        816684       1504724       1160704
 MEMORY| Slab                  1623284       1578232       1623284       1600758
 MEMORY| SReclaimable           102644         96352        102644         99498
 MEMORY| MemLikelyFree       253564000     253564000     253978976     253771488


 GENERATE|  Preliminary Number of Bonds generated:                             0
 GENERATE|  Achieved consistency in connectivity generation.

 *******************************************************************************
 *******************************************************************************
 **                                                                           **
 **     #####                         ##              ##                      **
 **    ##   ##            ##          ##              ##                      **
 **   ##     ##                       ##            ######                    **
 **   ##     ##  ##   ##  ##   #####  ##  ##   ####   ##    #####    #####    **
 **   ##     ##  ##   ##  ##  ##      ## ##   ##      ##   ##   ##  ##   ##   **
 **   ##  ## ##  ##   ##  ##  ##      ####     ###    ##   ######   ######    **
 **    ##  ###   ##   ##  ##  ##      ## ##      ##   ##   ##       ##        **
 **     #######   #####   ##   #####  ##  ##  ####    ##    #####   ##        **
 **           ##                                                    ##        **
 **                                                                           **
 **                                                ... make the atoms dance   **
 **                                                                           **
 **            Copyright (C) by CP2K developers group (2000-2021)             **
 **                      J. Chem. Phys. 152, 194103 (2020)                    **
 **                                                                           **
 *******************************************************************************


 TOTAL NUMBERS AND MAXIMUM NUMBERS

  Total number of            - Atomic kinds:                                   2
                             - Atoms:                                       1536
                             - Shell sets:                                  3072
                             - Shells:                                      9216
                             - Primitive Cartesian functions:              10752
                             - Cartesian basis functions:                  21504
                             - Spherical basis functions:                  20480

  Maximum angular momentum of- Orbital basis functions:                        2
                             - Local part of the GTH pseudopotential:          2
                             - Non-local part of the GTH pseudopotential:      0


 SCF PARAMETERS         Density guess:                                    ATOMIC
                        --------------------------------------------------------
                        max_scf:                                              50
                        max_scf_history:                                       0
                        max_diis:                                              4
                        --------------------------------------------------------
                        eps_scf:                                        1.00E-05
                        eps_scf_history:                                0.00E+00
                        eps_diis:                                       1.00E-01
                        eps_eigval:                                     1.00E-05
                        --------------------------------------------------------
                        level_shift [a.u.]:                                 0.00
                        --------------------------------------------------------
                        No outer SCF

 MD_PAR| Molecular dynamics protocol (MD input parameters)
 MD_PAR| Ensemble type                                                       NVE
 MD_PAR| Number of time steps                                                 10
 MD_PAR| Time step [fs]                                                 0.500000
 MD_PAR| Temperature [K]                                              300.000000
 MD_PAR| Temperature tolerance [K]                                      0.000000
 MD_PAR| Print MD information every                                    1 step(s)
 MD_PAR| File type   Print frequency [steps]                          File names
 MD_PAR| Coordinates          1                                H2O-512-pos-1.xyz
 MD_PAR| Velocities           1                                H2O-512-vel-1.xyz
 MD_PAR| Energies             1                                   H2O-512-1.ener
 MD_PAR| Dump                20                                H2O-512-1.restart

 ROT| Rotational analysis information
 ROT| Principal axes and moments of inertia [a.u.]
 ROT|                           1                   2                   3
 ROT| Eigenvalues      6.12011925703E+09   6.17734003456E+09   6.32378668800E+09
 ROT|      x              0.229702356692      0.883899672739      0.407379670409
 ROT|      y              0.711719446246      0.132949289019     -0.689768016354
 ROT|      z              0.663846561462     -0.448381372362      0.598549820611
 ROT| Number of rotovibrational vectors                                        6

 DOF| Calculation of degrees of freedom
 DOF| Number of atoms                                                       1536
 DOF| Number of intramolecular constraints                                     0
 DOF| Number of intermolecular constraints                                     0
 DOF| Invariants (translations + rotations)                                    3
 DOF| Degrees of freedom                                                    4605

 DOF| Restraints information
 DOF| Number of intramolecular restraints                                      0
 DOF| Number of intermolecular restraints                                      0

 MD_VEL| Velocities initialization
 MD_VEL| Initial temperature [K]                                      300.000000
 MD_VEL| COM velocity             0.0000000000    -0.0000000000     0.0000000000

 Number of electrons:                                                       4096
 Number of occupied orbitals:                                               2048
 Number of molecular orbitals:                                              2048

 Number of orbital functions:                                              20480
 Number of independent orbital functions:                                  20480

 Extrapolation method: initial_guess


 SCF WAVEFUNCTION OPTIMIZATION

  ----------------------------------- OT ---------------------------------------
  Minimizer      : DIIS                : direct inversion
                                         in the iterative subspace
                                         using   7 DIIS vectors
                                         safer DIIS on
  Preconditioner : FULL_KINETIC        : inversion of T + eS
  Precond_solver : DEFAULT
  stepsize       :    0.15000000                  energy_gap     :    0.20000000
  eps_taylor     :   0.10000E-15                  max_taylor     :             4
  ----------------------------------- OT ---------------------------------------

  Step     Update method      Time    Convergence         Total energy    Change
  ------------------------------------------------------------------------------
     1 OT DIIS     0.15E+00   12.8     0.00467324     -8480.4728425690 -8.48E+03
     2 OT DIIS     0.15E+00    2.6     0.00318266     -8587.4488310143 -1.07E+02
     3 OT DIIS     0.15E+00    2.6     0.00347210     -8644.7931966768 -5.73E+01
     4 OT DIIS     0.15E+00    2.6     0.00204380     -8678.2157923836 -3.34E+01
     5 OT DIIS     0.15E+00    2.6     0.00148292     -8717.4624183879 -3.92E+01
     6 OT DIIS     0.15E+00    2.6     0.00119954     -8738.7795043572 -2.13E+01
     7 OT DIIS     0.15E+00    2.6     0.00099038     -8755.0185947301 -1.62E+01
     8 OT DIIS     0.15E+00    2.7     0.00079894     -8767.5347825453 -1.25E+01
     9 OT DIIS     0.15E+00    2.7     0.00061581     -8780.1862563835 -1.27E+01
    10 OT DIIS     0.15E+00    2.7     0.00048147     -8788.6147471043 -8.43E+00
    11 OT DIIS     0.15E+00    2.7     0.00038278     -8794.1215228889 -5.51E+00
    12 OT DIIS     0.15E+00    2.7     0.00031960     -8797.5363589594 -3.41E+00
    13 OT DIIS     0.15E+00    2.7     0.00026435     -8799.9344030908 -2.40E+00
    14 OT DIIS     0.15E+00    2.7     0.00023004     -8801.7089305035 -1.77E+00
    15 OT DIIS     0.15E+00    2.7     0.00019592     -8803.0697888564 -1.36E+00
    16 OT DIIS     0.15E+00    2.6     0.00016642     -8804.2000843412 -1.13E+00
    17 OT DIIS     0.15E+00    2.7     0.00014164     -8805.0506655806 -8.51E-01
    18 OT DIIS     0.15E+00    2.7     0.00012638     -8805.6725421207 -6.22E-01
    19 OT DIIS     0.15E+00    2.7     0.00010717     -8806.2171485646 -5.45E-01
    20 OT DIIS     0.15E+00    2.7     0.00009868     -8806.5290018963 -3.12E-01
    21 OT DIIS     0.15E+00    2.6     0.00008484     -8806.8772741195 -3.48E-01
    22 OT DIIS     0.15E+00    2.7     0.00007717     -8807.0943334427 -2.17E-01
    23 OT DIIS     0.15E+00    2.6     0.00006815     -8807.2974129499 -2.03E-01
    24 OT DIIS     0.15E+00    2.6     0.00006019     -8807.4529078233 -1.55E-01
    25 OT DIIS     0.15E+00    2.7     0.00005010     -8807.5989834234 -1.46E-01
    26 OT DIIS     0.15E+00    2.6     0.00004000     -8807.6989662228 -1.00E-01
    27 OT DIIS     0.15E+00    2.7     0.00003462     -8807.7827122402 -8.37E-02
    28 OT DIIS     0.15E+00    2.6     0.00003071     -8807.7824932500  2.19E-04
    29 OT DIIS     0.15E+00    2.7     0.00002690     -8807.8200993195 -3.76E-02
    30 OT DIIS     0.15E+00    2.7     0.00002500     -8807.8399634016 -1.99E-02
    31 OT DIIS     0.15E+00    2.7     0.00002395     -8807.8566460922 -1.67E-02
    32 OT DIIS     0.15E+00    2.7     0.00002328     -8807.8682689642 -1.16E-02
    33 OT DIIS     0.15E+00    2.6     0.00002304     -8807.8827275965 -1.45E-02
    34 OT DIIS     0.15E+00    2.7     0.00002300     -8807.8854890297 -2.76E-03
    35 OT SD       0.15E+00    2.7     0.00002301     -8807.8907467596 -5.26E-03
    36 OT SD       0.15E+00    2.7     0.00002308     -8807.8940817096 -3.33E-03
    37 OT SD       0.15E+00    2.7     0.00002318     -8807.8974407043 -3.36E-03
    38 OT SD       0.15E+00    2.7     0.00002329     -8807.9008284718 -3.39E-03
    39 OT SD       0.15E+00    2.6     0.00002341     -8807.9042491083 -3.42E-03
    40 OT SD       0.15E+00    2.7     0.00002354     -8807.9077063659 -3.46E-03
    41 OT SD       0.15E+00    2.7     0.00002369     -8807.9112037365 -3.50E-03
    42 OT SD       0.15E+00    2.7     0.00002384     -8807.9147444866 -3.54E-03
    43 OT SD       0.15E+00    2.7     0.00002400     -8807.9183316715 -3.59E-03
    44 OT SD       0.15E+00    2.6     0.00002417     -8807.9219681410 -3.64E-03
    45 OT DIIS     0.15E+00    2.6     0.00002435     -8807.9256565390 -3.69E-03
    46 OT DIIS     0.15E+00    2.6     0.00004959     -8807.9132465946  1.24E-02
    47 OT SD       0.15E+00    2.7     0.00005083     -8807.9140568494 -8.10E-04
    48 OT SD       0.15E+00    2.7     0.00004011     -8807.9282849258 -1.42E-02
    49 OT SD       0.15E+00    2.7     0.00003556     -8807.9377465648 -9.46E-03
    50 OT SD       0.15E+00    2.7     0.00003333     -8807.9454126224 -7.67E-03

  Leaving inner SCF loop after reaching    50 steps.


  Electronic density on regular grids:      -4096.0000074775       -0.0000074775
  Core density on regular grids:             4095.9999999927       -0.0000000073
  Total charge density on r-space grids:       -0.0000074847
  Total charge density g-space grids:          -0.0000074847

  Overlap energy of the core charge distribution:               0.00004500798551
  Self energy of the core charge distribution:             -22442.43995950839599
  Core Hamiltonian energy:                                   6603.78841661165006
  Hartree energy:                                            9161.23683284713843
  Exchange-correlation energy:                              -2130.53074758074445

  Total energy:                                             -8807.94541262236635

 *** WARNING in qs_scf.F:576 :: SCF run NOT converged ***


 ENERGY| Total FORCE_EVAL ( QS ) energy [a.u.]:            -8807.952266037391382

 MD_INI| MD initialization
 MD_INI| Potential energy [hartree]                          -0.880795226604E+04
 MD_INI| Kinetic energy [hartree]                             0.218747769838E+01
 MD_INI| Temperature [K]                                              300.000000
 MD_INI| Cell volume [bohr^3]                                 1.037187315243E+05
 MD_INI| Cell volume [ang^3]                                  1.536953010365E+04
 MD_INI| Cell lengths [bohr]      4.69842608E+01  4.69842608E+01  4.69842608E+01
 MD_INI| Cell lengths [ang]       2.48630000E+01  2.48630000E+01  2.48630000E+01
 MD_INI| Cell angles [deg]        9.00000000E+01  9.00000000E+01  9.00000000E+01

 Number of electrons:                                                       4096
 Number of occupied orbitals:                                               2048
 Number of molecular orbitals:                                              2048

 Number of orbital functions:                                              20480
 Number of independent orbital functions:                                  20480

 Extrapolation method: PS Nth order
 Extrapolation order:  0


 SCF WAVEFUNCTION OPTIMIZATION

  ----------------------------------- OT ---------------------------------------
  Minimizer      : DIIS                : direct inversion
                                         in the iterative subspace
                                         using   7 DIIS vectors
                                         safer DIIS on
  Preconditioner : FULL_KINETIC        : inversion of T + eS
  Precond_solver : DEFAULT
  stepsize       :    0.15000000                  energy_gap     :    0.20000000
  eps_taylor     :   0.10000E-15                  max_taylor     :             4
  ----------------------------------- OT ---------------------------------------

  Step     Update method      Time    Convergence         Total energy    Change
  ------------------------------------------------------------------------------
     1 OT DIIS     0.15E+00   12.1     0.00010168     -8807.9543168385 -8.81E+03
     2 OT DIIS     0.15E+00    2.3     0.00007399     -8808.0090686450 -5.48E-02
     3 OT DIIS     0.15E+00    2.3     0.00005492     -8808.0644476123 -5.54E-02
     4 OT DIIS     0.15E+00    2.3     0.00004932     -8808.1018441200 -3.74E-02
     5 OT DIIS     0.15E+00    2.6     0.00004590     -8808.1447308113 -4.29E-02
     6 OT DIIS     0.15E+00    2.6     0.00004349     -8808.1868257746 -4.21E-02
     7 OT DIIS     0.15E+00    2.6     0.00003915     -8808.2470160998 -6.02E-02
     8 OT DIIS     0.15E+00    2.7     0.00002837     -8808.3270173148 -8.00E-02
     9 OT DIIS     0.15E+00    2.6     0.00002031     -8808.3585122135 -3.15E-02
    10 OT DIIS     0.15E+00    2.7     0.00001290     -8808.3784976543 -2.00E-02
    11 OT DIIS     0.15E+00    2.6     0.00001028     -8808.3792340750 -7.36E-04
    12 OT DIIS     0.15E+00    2.7     0.00000706     -8808.3828005554 -3.57E-03

  *** SCF run converged in    12 steps ***


  Electronic density on regular grids:      -4096.0000079114       -0.0000079114
  Core density on regular grids:             4095.9999999916       -0.0000000084
  Total charge density on r-space grids:       -0.0000079198
  Total charge density g-space grids:          -0.0000079198

  Overlap energy of the core charge distribution:               0.00004378129187
  Self energy of the core charge distribution:             -22442.43995950839599
  Core Hamiltonian energy:                                   6601.18460063676503
  Hartree energy:                                            9162.94055046383073
  Exchange-correlation energy:                              -2130.06803592893903

  Total energy:                                             -8808.38280055544601

 ENERGY| Total FORCE_EVAL ( QS ) energy [a.u.]:            -8808.383475399446979

 MD| ***************************************************************************
 MD| Step number                                                               1
 MD| Time [fs]                                                          0.500000
 MD| Conserved quantity [hartree]                            -0.880615756593E+04
 MD| ---------------------------------------------------------------------------
 MD|                                          Instantaneous             Averages
 MD| CPU time per MD step [s]                    190.826692           190.826692
 MD| Energy drift per atom [K]          -0.807481815330E+02   0.000000000000E+00
 MD| Potential energy [hartree]         -0.880838347540E+04  -0.880838347540E+04
 MD| Kinetic energy [hartree]            0.222590946521E+01   0.222590946521E+01
 MD| Temperature [K]                             305.270696           305.270696
 MD| ***************************************************************************

 Number of electrons:                                                       4096
 Number of occupied orbitals:                                               2048
 Number of molecular orbitals:                                              2048

 Number of orbital functions:                                              20480
 Number of independent orbital functions:                                  20480

 Extrapolation method: PS Nth order
 Extrapolation order:  1


 SCF WAVEFUNCTION OPTIMIZATION

  ----------------------------------- OT ---------------------------------------
  Minimizer      : DIIS                : direct inversion
                                         in the iterative subspace
                                         using   7 DIIS vectors
                                         safer DIIS on
  Preconditioner : FULL_KINETIC        : inversion of T + eS
  Precond_solver : DEFAULT
  stepsize       :    0.15000000                  energy_gap     :    0.20000000
  eps_taylor     :   0.10000E-15                  max_taylor     :             4
  ----------------------------------- OT ---------------------------------------

  Step     Update method      Time    Convergence         Total energy    Change
  ------------------------------------------------------------------------------
     1 OT DIIS     0.15E+00   12.5     0.00008001     -8808.4313275195 -8.81E+03
     2 OT DIIS     0.15E+00    2.3     0.00005270     -8808.4637611766 -3.24E-02
     3 OT DIIS     0.15E+00    2.3     0.00003321     -8808.4886624212 -2.49E-02
     4 OT DIIS     0.15E+00    2.3     0.00002251     -8808.5029545545 -1.43E-02
     5 OT DIIS     0.15E+00    2.4     0.00001406     -8808.5119341072 -8.98E-03
     6 OT DIIS     0.15E+00    2.3     0.00000837     -8808.5159255470 -3.99E-03

  *** SCF run converged in     6 steps ***


  Electronic density on regular grids:      -4096.0000084047       -0.0000084047
  Core density on regular grids:             4095.9999999941       -0.0000000059
  Total charge density on r-space grids:       -0.0000084106
  Total charge density g-space grids:          -0.0000084106

  Overlap energy of the core charge distribution:               0.00003948972633
  Self energy of the core charge distribution:             -22442.43995950839599
  Core Hamiltonian energy:                                   6592.75635908482400
  Hartree energy:                                            9168.97931573689857
  Exchange-correlation energy:                              -2127.81168035006885

  Total energy:                                             -8808.51592554701710

 ENERGY| Total FORCE_EVAL ( QS ) energy [a.u.]:            -8808.517236823141502

 MD| ***************************************************************************
 MD| Step number                                                               2
 MD| Time [fs]                                                          1.000000
 MD| Conserved quantity [hartree]                            -0.880616182401E+04
 MD| ---------------------------------------------------------------------------
 MD|                                          Instantaneous             Averages
 MD| CPU time per MD step [s]                     27.701516           109.264104
 MD| Energy drift per atom [K]          -0.816235664014E+02  -0.408117832007E+02
 MD| Potential energy [hartree]         -0.880851723682E+04  -0.880845035611E+04
 MD| Kinetic energy [hartree]            0.235541281700E+01   0.229066114110E+01
 MD| Temperature [K]                             323.031337           314.151016
 MD| ***************************************************************************

 Number of electrons:                                                       4096
 Number of occupied orbitals:                                               2048
 Number of molecular orbitals:                                              2048

 Number of orbital functions:                                              20480
 Number of independent orbital functions:                                  20480

 Extrapolation method: PS Nth order
 Extrapolation order:  2


 SCF WAVEFUNCTION OPTIMIZATION

  ----------------------------------- OT ---------------------------------------
  Minimizer      : DIIS                : direct inversion
                                         in the iterative subspace
                                         using   7 DIIS vectors
                                         safer DIIS on
  Preconditioner : FULL_KINETIC        : inversion of T + eS
  Precond_solver : DEFAULT
  stepsize       :    0.15000000                  energy_gap     :    0.20000000
  eps_taylor     :   0.10000E-15                  max_taylor     :             4
  ----------------------------------- OT ---------------------------------------

  Step     Update method      Time    Convergence         Total energy    Change
  ------------------------------------------------------------------------------
     1 OT DIIS     0.15E+00   12.9     0.00008993     -8808.3716247515 -8.81E+03
     2 OT DIIS     0.15E+00    2.3     0.00007431     -8808.4173774728 -4.58E-02
     3 OT DIIS     0.15E+00    2.3     0.00005878     -8808.4862219788 -6.88E-02
     4 OT DIIS     0.15E+00    2.3     0.00004979     -8808.5437338088 -5.75E-02
     5 OT DIIS     0.15E+00    2.3     0.00004006     -8808.6034008703 -5.97E-02
     6 OT DIIS     0.15E+00    2.6     0.00002840     -8808.6545595631 -5.12E-02
     7 OT DIIS     0.15E+00    2.6     0.00001854     -8808.6821057575 -2.75E-02
     8 OT DIIS     0.15E+00    2.7     0.00001251     -8808.6920740096 -9.97E-03
     9 OT DIIS     0.15E+00    2.7     0.00000891     -8808.6959134366 -3.84E-03

  *** SCF run converged in     9 steps ***


  Electronic density on regular grids:      -4096.0000081507       -0.0000081507
  Core density on regular grids:             4095.9999999985       -0.0000000015
  Total charge density on r-space grids:       -0.0000081522
  Total charge density g-space grids:          -0.0000081522

  Overlap energy of the core charge distribution:               0.00003222718183
  Self energy of the core charge distribution:             -22442.43995950839599
  Core Hamiltonian energy:                                   6579.97343641273528
  Hartree energy:                                            9178.11099707175163
  Exchange-correlation energy:                              -2124.34041963991876

  Total energy:                                             -8808.69591343664615

 ENERGY| Total FORCE_EVAL ( QS ) energy [a.u.]:            -8808.697760323917464

 MD| ***************************************************************************
 MD| Step number                                                               3
 MD| Time [fs]                                                          1.500000
 MD| Conserved quantity [hartree]                            -0.880616480347E+04
 MD| ---------------------------------------------------------------------------
 MD|                                          Instantaneous             Averages
 MD| CPU time per MD step [s]                     36.787885            85.105364
 MD| Energy drift per atom [K]          -0.822360923710E+02  -0.546198862574E+02
 MD| Potential energy [hartree]         -0.880869776032E+04  -0.880853282418E+04
 MD| Kinetic energy [hartree]            0.253295685158E+01   0.237142637793E+01
 MD| Temperature [K]                             347.380481           325.227505
 MD| ***************************************************************************

 Number of electrons:                                                       4096
 Number of occupied orbitals:                                               2048
 Number of molecular orbitals:                                              2048

 Number of orbital functions:                                              20480
 Number of independent orbital functions:                                  20480

 Extrapolation method: PS Nth order
 Extrapolation order:  3


 SCF WAVEFUNCTION OPTIMIZATION

  ----------------------------------- OT ---------------------------------------
  Minimizer      : DIIS                : direct inversion
                                         in the iterative subspace
                                         using   7 DIIS vectors
                                         safer DIIS on
  Preconditioner : FULL_KINETIC        : inversion of T + eS
  Precond_solver : DEFAULT
  stepsize       :    0.15000000                  energy_gap     :    0.20000000
  eps_taylor     :   0.10000E-15                  max_taylor     :             4
  ----------------------------------- OT ---------------------------------------

  Step     Update method      Time    Convergence         Total energy    Change
  ------------------------------------------------------------------------------
     1 OT DIIS     0.15E+00   13.4     0.00008299     -8808.7601150069 -8.81E+03
     2 OT DIIS     0.15E+00    2.3     0.00005686     -8808.7956306776 -3.55E-02
     3 OT DIIS     0.15E+00    2.3     0.00003613     -8808.8258238668 -3.02E-02
     4 OT DIIS     0.15E+00    2.3     0.00002270     -8808.8440405920 -1.82E-02
     5 OT DIIS     0.15E+00    2.3     0.00001489     -8808.8523349932 -8.29E-03
     6 OT DIIS     0.15E+00    2.3     0.00000969     -8808.8563587842 -4.02E-03

  *** SCF run converged in     6 steps ***


  Electronic density on regular grids:      -4096.0000085806       -0.0000085806
  Core density on regular grids:             4096.0000000009        0.0000000009
  Total charge density on r-space grids:       -0.0000085797
  Total charge density g-space grids:          -0.0000085797

  Overlap energy of the core charge distribution:               0.00002346606794
  Self energy of the core charge distribution:             -22442.43995950839599
  Core Hamiltonian energy:                                   6564.27150937821625
  Hartree energy:                                            9189.38291613606998
  Exchange-correlation energy:                              -2120.07084825616766

  Total energy:                                             -8808.85635878420726

 ENERGY| Total FORCE_EVAL ( QS ) energy [a.u.]:            -8808.858125832433871

 MD| ***************************************************************************
 MD| Step number                                                               4
 MD| Time [fs]                                                          2.000000
 MD| Conserved quantity [hartree]                            -0.880616980749E+04
 MD| ---------------------------------------------------------------------------
 MD|                                          Instantaneous             Averages
 MD| CPU time per MD step [s]                     29.479442            71.198884
 MD| Energy drift per atom [K]          -0.832648315194E+02  -0.617811225729E+02
 MD| Potential energy [hartree]         -0.880885812583E+04  -0.880861414959E+04
 MD| Kinetic energy [hartree]            0.268831833794E+01   0.245064936793E+01
 MD| Temperature [K]                             368.687417           336.092483
 MD| ***************************************************************************

 Number of electrons:                                                       4096
 Number of occupied orbitals:                                               2048
 Number of molecular orbitals:                                              2048

 Number of orbital functions:                                              20480
 Number of independent orbital functions:                                  20480

 Extrapolation method: PS Nth order
 Extrapolation order:  3


 SCF WAVEFUNCTION OPTIMIZATION

  ----------------------------------- OT ---------------------------------------
  Minimizer      : DIIS                : direct inversion
                                         in the iterative subspace
                                         using   7 DIIS vectors
                                         safer DIIS on
  Preconditioner : FULL_KINETIC        : inversion of T + eS
  Precond_solver : DEFAULT
  stepsize       :    0.15000000                  energy_gap     :    0.20000000
  eps_taylor     :   0.10000E-15                  max_taylor     :             4
  ----------------------------------- OT ---------------------------------------

  Step     Update method      Time    Convergence         Total energy    Change
  ------------------------------------------------------------------------------
     1 OT DIIS     0.15E+00   13.8     0.00005398     -8808.8521863174 -8.81E+03
     2 OT DIIS     0.15E+00    2.3     0.00004360     -8808.8685863732 -1.64E-02
     3 OT DIIS     0.15E+00    2.6     0.00002876     -8808.8948280340 -2.62E-02
     4 OT DIIS     0.15E+00    2.6     0.00002104     -8808.9082253150 -1.34E-02
     5 OT DIIS     0.15E+00    2.6     0.00001317     -8808.9185282401 -1.03E-02
     6 OT DIIS     0.15E+00    2.6     0.00000843     -8808.9223751794 -3.85E-03

  *** SCF run converged in     6 steps ***


  Electronic density on regular grids:      -4096.0000071800       -0.0000071800
  Core density on regular grids:             4095.9999999999       -0.0000000001
  Total charge density on r-space grids:       -0.0000071801
  Total charge density g-space grids:          -0.0000071801

  Overlap energy of the core charge distribution:               0.00001548079049
  Self energy of the core charge distribution:             -22442.43995950839599
  Core Hamiltonian energy:                                   6547.40957324486772
  Hartree energy:                                            9201.58659201673800
  Exchange-correlation energy:                              -2115.47859641336754

  Total energy:                                             -8808.92237517936883

 ENERGY| Total FORCE_EVAL ( QS ) energy [a.u.]:            -8808.923937451805614

 MD| ***************************************************************************
 MD| Step number                                                               5
 MD| Time [fs]                                                          2.500000
 MD| Conserved quantity [hartree]                            -0.880617229713E+04
 MD| ---------------------------------------------------------------------------
 MD|                                          Instantaneous             Averages
 MD| CPU time per MD step [s]                     31.172608            63.193628
 MD| Energy drift per atom [K]          -0.837766566233E+02  -0.661802293830E+02
 MD| Potential energy [hartree]         -0.880892393745E+04  -0.880867610717E+04
 MD| Kinetic energy [hartree]            0.275164032313E+01   0.251084755897E+01
 MD| Temperature [K]                             377.371663           344.348319
 MD| ***************************************************************************

 Number of electrons:                                                       4096
 Number of occupied orbitals:                                               2048
 Number of molecular orbitals:                                              2048

 Number of orbital functions:                                              20480
 Number of independent orbital functions:                                  20480

 Extrapolation method: PS Nth order
 Extrapolation order:  3


 SCF WAVEFUNCTION OPTIMIZATION

  ----------------------------------- OT ---------------------------------------
  Minimizer      : DIIS                : direct inversion
                                         in the iterative subspace
                                         using   7 DIIS vectors
                                         safer DIIS on
  Preconditioner : FULL_KINETIC        : inversion of T + eS
  Precond_solver : DEFAULT
  stepsize       :    0.15000000                  energy_gap     :    0.20000000
  eps_taylor     :   0.10000E-15                  max_taylor     :             4
  ----------------------------------- OT ---------------------------------------

  Step     Update method      Time    Convergence         Total energy    Change
  ------------------------------------------------------------------------------
     1 OT DIIS     0.15E+00   14.2     0.00004459     -8808.8152205196 -8.81E+03
     2 OT DIIS     0.15E+00    2.3     0.00003657     -8808.8265147213 -1.13E-02
     3 OT DIIS     0.15E+00    2.3     0.00002088     -8808.8466639468 -2.01E-02
     4 OT DIIS     0.15E+00    2.4     0.00001310     -8808.8539196306 -7.26E-03
     5 OT DIIS     0.15E+00    2.3     0.00000885     -8808.8567201973 -2.80E-03

  *** SCF run converged in     5 steps ***


  Electronic density on regular grids:      -4096.0000062625       -0.0000062625
  Core density on regular grids:             4095.9999999983       -0.0000000017
  Total charge density on r-space grids:       -0.0000062642
  Total charge density g-space grids:          -0.0000062642

  Overlap energy of the core charge distribution:               0.00000971622936
  Self energy of the core charge distribution:             -22442.43995950839599
  Core Hamiltonian energy:                                   6531.17262834657413
  Hartree energy:                                            9213.44176651212911
  Exchange-correlation energy:                              -2111.03116526386748

  Total energy:                                             -8808.85672019733101

 ENERGY| Total FORCE_EVAL ( QS ) energy [a.u.]:            -8808.858097158321470

 MD| ***************************************************************************
 MD| Step number                                                               6
 MD| Time [fs]                                                          3.000000
 MD| Conserved quantity [hartree]                            -0.880617011986E+04
 MD| ---------------------------------------------------------------------------
 MD|                                          Instantaneous             Averages
 MD| CPU time per MD step [s]                     28.124410            57.348759
 MD| Energy drift per atom [K]          -0.833290489178E+02  -0.690383659721E+02
 MD| Potential energy [hartree]         -0.880885809716E+04  -0.880870643883E+04
 MD| Kinetic energy [hartree]            0.268797729574E+01   0.254036918177E+01
 MD| Temperature [K]                             368.640645           348.397040
 MD| ***************************************************************************

 Number of electrons:                                                       4096
 Number of occupied orbitals:                                               2048
 Number of molecular orbitals:                                              2048

 Number of orbital functions:                                              20480
 Number of independent orbital functions:                                  20480

 Extrapolation method: PS Nth order
 Extrapolation order:  3


 SCF WAVEFUNCTION OPTIMIZATION

  ----------------------------------- OT ---------------------------------------
  Minimizer      : DIIS                : direct inversion
                                         in the iterative subspace
                                         using   7 DIIS vectors
                                         safer DIIS on
  Preconditioner : FULL_KINETIC        : inversion of T + eS
  Precond_solver : DEFAULT
  stepsize       :    0.15000000                  energy_gap     :    0.20000000
  eps_taylor     :   0.10000E-15                  max_taylor     :             4
  ----------------------------------- OT ---------------------------------------

  Step     Update method      Time    Convergence         Total energy    Change
  ------------------------------------------------------------------------------
     1 OT DIIS     0.15E+00   14.8     0.00004551     -8808.6384727262 -8.81E+03
     2 OT DIIS     0.15E+00    2.3     0.00003729     -8808.6502398144 -1.18E-02
     3 OT DIIS     0.15E+00    2.4     0.00002023     -8808.6710764067 -2.08E-02
     4 OT DIIS     0.15E+00    2.3     0.00001308     -8808.6771465846 -6.07E-03
     5 OT DIIS     0.15E+00    2.3     0.00000755     -8808.6802147614 -3.07E-03

  *** SCF run converged in     5 steps ***


  Electronic density on regular grids:      -4096.0000050933       -0.0000050933
  Core density on regular grids:             4095.9999999989       -0.0000000011
  Total charge density on r-space grids:       -0.0000050945
  Total charge density g-space grids:          -0.0000050945

  Overlap energy of the core charge distribution:               0.00000622090922
  Self energy of the core charge distribution:             -22442.43995950839599
  Core Hamiltonian energy:                                   6517.03117703212411
  Hartree energy:                                            9223.86272339081188
  Exchange-correlation energy:                              -2107.13416189688951

  Total energy:                                             -8808.68021476143804

 ENERGY| Total FORCE_EVAL ( QS ) energy [a.u.]:            -8808.681148853560444

 MD| ***************************************************************************
 MD| Step number                                                               7
 MD| Time [fs]                                                          3.500000
 MD| Conserved quantity [hartree]                            -0.880616596430E+04
 MD| ---------------------------------------------------------------------------
 MD|                                          Instantaneous             Averages
 MD| CPU time per MD step [s]                     28.671732            53.252041
 MD| Energy drift per atom [K]          -0.824747384097E+02  -0.709578477489E+02
 MD| Potential energy [hartree]         -0.880868114885E+04  -0.880870282598E+04
 MD| Kinetic energy [hartree]            0.251518455239E+01   0.253677137757E+01
 MD| Temperature [K]                             344.943112           347.903622
 MD| ***************************************************************************

 Number of electrons:                                                       4096
 Number of occupied orbitals:                                               2048
 Number of molecular orbitals:                                              2048

 Number of orbital functions:                                              20480
 Number of independent orbital functions:                                  20480

 Extrapolation method: PS Nth order
 Extrapolation order:  3


 SCF WAVEFUNCTION OPTIMIZATION

  ----------------------------------- OT ---------------------------------------
  Minimizer      : DIIS                : direct inversion
                                         in the iterative subspace
                                         using   7 DIIS vectors
                                         safer DIIS on
  Preconditioner : FULL_KINETIC        : inversion of T + eS
  Precond_solver : DEFAULT
  stepsize       :    0.15000000                  energy_gap     :    0.20000000
  eps_taylor     :   0.10000E-15                  max_taylor     :             4
  ----------------------------------- OT ---------------------------------------

  Step     Update method      Time    Convergence         Total energy    Change
  ------------------------------------------------------------------------------
     1 OT DIIS     0.15E+00   15.1     0.00004641     -8808.4083319861 -8.81E+03
     2 OT DIIS     0.15E+00    2.3     0.00003772     -8808.4205071196 -1.22E-02
     3 OT DIIS     0.15E+00    2.3     0.00002095     -8808.4409397866 -2.04E-02
     4 OT DIIS     0.15E+00    2.3     0.00001360     -8808.4479496880 -7.01E-03
     5 OT DIIS     0.15E+00    2.3     0.00001073     -8808.4504243825 -2.47E-03
     6 OT DIIS     0.15E+00    2.3     0.00000737     -8808.4530069544 -2.58E-03

  *** SCF run converged in     6 steps ***


  Electronic density on regular grids:      -4096.0000038473       -0.0000038473
  Core density on regular grids:             4096.0000000008        0.0000000008
  Total charge density on r-space grids:       -0.0000038465
  Total charge density g-space grids:          -0.0000038465

  Overlap energy of the core charge distribution:               0.00000436186846
  Self energy of the core charge distribution:             -22442.43995950839599
  Core Hamiltonian energy:                                   6506.06509630180972
  Hartree energy:                                            9232.01158300569114
  Exchange-correlation energy:                              -2104.08973111539581

  Total energy:                                             -8808.45300695442347

 ENERGY| Total FORCE_EVAL ( QS ) energy [a.u.]:            -8808.454572291233490

 MD| ***************************************************************************
 MD| Step number                                                               8
 MD| Time [fs]                                                          4.000000
 MD| Conserved quantity [hartree]                            -0.880616115702E+04
 MD| ---------------------------------------------------------------------------
 MD|                                          Instantaneous             Averages
 MD| CPU time per MD step [s]                     31.136729            50.487627
 MD| Energy drift per atom [K]          -0.814864458844E+02  -0.722739225159E+02
 MD| Potential energy [hartree]         -0.880845457229E+04  -0.880867179427E+04
 MD| Kinetic energy [hartree]            0.229341527060E+01   0.250635186420E+01
 MD| Temperature [K]                             314.528729           343.731760
 MD| ***************************************************************************

 Number of electrons:                                                       4096
 Number of occupied orbitals:                                               2048
 Number of molecular orbitals:                                              2048

 Number of orbital functions:                                              20480
 Number of independent orbital functions:                                  20480

 Extrapolation method: PS Nth order
 Extrapolation order:  3


 SCF WAVEFUNCTION OPTIMIZATION

  ----------------------------------- OT ---------------------------------------
  Minimizer      : DIIS                : direct inversion
                                         in the iterative subspace
                                         using   7 DIIS vectors
                                         safer DIIS on
  Preconditioner : FULL_KINETIC        : inversion of T + eS
  Precond_solver : DEFAULT
  stepsize       :    0.15000000                  energy_gap     :    0.20000000
  eps_taylor     :   0.10000E-15                  max_taylor     :             4
  ----------------------------------- OT ---------------------------------------

  Step     Update method      Time    Convergence         Total energy    Change
  ------------------------------------------------------------------------------
     1 OT DIIS     0.15E+00   15.6     0.00004051     -8808.2146835663 -8.81E+03
     2 OT DIIS     0.15E+00    2.3     0.00003407     -8808.2241480550 -9.46E-03
     3 OT DIIS     0.15E+00    2.3     0.00001718     -8808.2450197317 -2.09E-02
     4 OT DIIS     0.15E+00    2.3     0.00001245     -8808.2495180247 -4.50E-03
     5 OT DIIS     0.15E+00    2.3     0.00000891     -8808.2522173556 -2.70E-03

  *** SCF run converged in     5 steps ***


  Electronic density on regular grids:      -4096.0000022244       -0.0000022244
  Core density on regular grids:             4096.0000000016        0.0000000016
  Total charge density on r-space grids:       -0.0000022228
  Total charge density g-space grids:          -0.0000022228

  Overlap energy of the core charge distribution:               0.00000353692484
  Self energy of the core charge distribution:             -22442.43995950839599
  Core Hamiltonian energy:                                   6498.75948353535932
  Hartree energy:                                            9237.49743732882780
  Exchange-correlation energy:                              -2102.06918224828132

  Total energy:                                             -8808.25221735556624

 ENERGY| Total FORCE_EVAL ( QS ) energy [a.u.]:            -8808.253875513069943

 MD| ***************************************************************************
 MD| Step number                                                               9
 MD| Time [fs]                                                          4.500000
 MD| Conserved quantity [hartree]                            -0.880615636221E+04
 MD| ---------------------------------------------------------------------------
 MD|                                          Instantaneous             Averages
 MD| CPU time per MD step [s]                     29.363022            48.140448
 MD| Energy drift per atom [K]          -0.805007169899E+02  -0.731880107908E+02
 MD| Potential energy [hartree]         -0.880825387551E+04  -0.880862535885E+04
 MD| Kinetic energy [hartree]            0.209751330288E+01   0.246092535738E+01
 MD| Temperature [K]                             287.661900           337.501776
 MD| ***************************************************************************

 Number of electrons:                                                       4096
 Number of occupied orbitals:                                               2048
 Number of molecular orbitals:                                              2048

 Number of orbital functions:                                              20480
 Number of independent orbital functions:                                  20480

 Extrapolation method: PS Nth order
 Extrapolation order:  3


 SCF WAVEFUNCTION OPTIMIZATION

  ----------------------------------- OT ---------------------------------------
  Minimizer      : DIIS                : direct inversion
                                         in the iterative subspace
                                         using   7 DIIS vectors
                                         safer DIIS on
  Preconditioner : FULL_KINETIC        : inversion of T + eS
  Precond_solver : DEFAULT
  stepsize       :    0.15000000                  energy_gap     :    0.20000000
  eps_taylor     :   0.10000E-15                  max_taylor     :             4
  ----------------------------------- OT ---------------------------------------

  Step     Update method      Time    Convergence         Total energy    Change
  ------------------------------------------------------------------------------
     1 OT DIIS     0.15E+00   16.0     0.00004012     -8808.1037183712 -8.81E+03
     2 OT DIIS     0.15E+00    2.3     0.00003342     -8808.1129195730 -9.20E-03
     3 OT DIIS     0.15E+00    2.3     0.00002049     -8808.1296926261 -1.68E-02
     4 OT DIIS     0.15E+00    2.3     0.00001263     -8808.1379711291 -8.28E-03
     5 OT DIIS     0.15E+00    2.3     0.00001017     -8808.1402137336 -2.24E-03
     6 OT DIIS     0.15E+00    2.3     0.00000715     -8808.1425489743 -2.34E-03

  *** SCF run converged in     6 steps ***


  Electronic density on regular grids:      -4096.0000006755       -0.0000006755
  Core density on regular grids:             4096.0000000008        0.0000000008
  Total charge density on r-space grids:       -0.0000006747
  Total charge density g-space grids:          -0.0000006747

  Overlap energy of the core charge distribution:               0.00000340788300
  Self energy of the core charge distribution:             -22442.43995950839599
  Core Hamiltonian energy:                                   6495.52250960370657
  Hartree energy:                                            9239.94932385032916
  Exchange-correlation energy:                              -2101.17442632777602

  Total energy:                                             -8808.14254897425235

 ENERGY| Total FORCE_EVAL ( QS ) energy [a.u.]:            -8808.143950180632601

 MD| ***************************************************************************
 MD| Step number                                                              10
 MD| Time [fs]                                                          5.000000
 MD| Conserved quantity [hartree]                            -0.880615521419E+04
 MD| ---------------------------------------------------------------------------
 MD|                                          Instantaneous             Averages
 MD| CPU time per MD step [s]                     32.061597            46.532563
 MD| Energy drift per atom [K]          -0.802647037545E+02  -0.738956800871E+02
 MD| Potential energy [hartree]         -0.880814395018E+04  -0.880857721798E+04
 MD| Kinetic energy [hartree]            0.198873599272E+01   0.241370642092E+01
 MD| Temperature [K]                             272.743717           331.025970
 MD| ***************************************************************************

 -------------------------------------------------------------------------------
 -                                                                             -
 -                                DBCSR STATISTICS                             -
 -                                                                             -
 -------------------------------------------------------------------------------
 COUNTER                                    TOTAL       BLAS       SMM       ACC
 flops     9 x    32 x    32          13287555072     100.0%      0.0%      0.0%
 flops    22 x    32 x    32          16240345088     100.0%      0.0%      0.0%
 flops    64 x   512 x   512        1356135923712     100.0%      0.0%      0.0%
 flops     9 x     9 x   512        5648350040064     100.0%      0.0%      0.0%
 flops   320 x   512 x   512        5991479377920     100.0%      0.0%      0.0%
 flops    64 x   512 x  5120        7296075694080     100.0%      0.0%      0.0%
 flops     9 x    22 x   512        7855827369984     100.0%      0.0%      0.0%
 flops    22 x     9 x   512        7866447519744     100.0%      0.0%      0.0%
 flops   351 x   512 x   512        8214879928320     100.0%      0.0%      0.0%
 flops   307 x   512 x   512        8622113292288     100.0%      0.0%      0.0%
 flops    22 x    22 x   512       11004752822272     100.0%      0.0%      0.0%
 flops    32 x   512 x   512       13109313929216     100.0%      0.0%      0.0%
 flops   320 x   512 x  5120       13636521164800     100.0%      0.0%      0.0%
 flops   342 x   512 x   512       17609332359168     100.0%      0.0%      0.0%
 flops   351 x   512 x  5120       18696948940800     100.0%      0.0%      0.0%
 flops   307 x   512 x  5120       19623806238720     100.0%      0.0%      0.0%
 flops     9 x    32 x     9       23722505551872     100.0%      0.0%      0.0%
 flops   329 x   512 x   512       27719953809408     100.0%      0.0%      0.0%
 flops     9 x    32 x    22       33153656684544     100.0%      0.0%      0.0%
 flops    22 x    32 x     9       33153656684544     100.0%      0.0%      0.0%
 flops   342 x   512 x  5120       40078587985920     100.0%      0.0%      0.0%
 flops    22 x    32 x    22       46115724689408     100.0%      0.0%      0.0%
 flops   329 x   512 x  5120       63090217451520     100.0%      0.0%      0.0%
 flops    32 x   512 x  5120       70528731709440     100.0%      0.0%      0.0%
 flops inhomo. stacks             110039478042624     100.0%      0.0%      0.0%
 flops total                       594.164025E+12     100.0%      0.0%      0.0%
 flops max/rank                     37.269052E+12     100.0%      0.0%      0.0%
 matmuls inhomo. stacks                    219200     100.0%      0.0%      0.0%
 matmuls total                        11468335536     100.0%      0.0%      0.0%
 number of processed stacks              14446792     100.0%      0.0%      0.0%
 average stack size                                   793.8       0.0       0.0
 marketing flops                     1.147134E+15
 -------------------------------------------------------------------------------
 # multiplications                           2431
 max memory usage/rank               3.246211E+09
 # max total images/rank                        1
 # max 3D layers                                1
 # MPI messages exchanged                  233376
 MPI messages size (bytes):
  total size                         4.485238E+12
  min size                           0.000000E+00
  max size                         209.715200E+06
  average size                      19.218932E+06
 MPI breakdown and total messages size (bytes):
             size <=      128                1452                        0
       128 < size <=     8192                   0                        0
      8192 < size <=    32768                   0                        0
     32768 < size <=   131072                 132                 17301504
    131072 < size <=  4194304              107616             225687109632
   4194304 < size <= 16777216                   0                        0
  16777216 < size                          124176            4259538544032
 -------------------------------------------------------------------------------
 -                                                                             -
 -                      DBCSR MESSAGE PASSING PERFORMANCE                      -
 -                                                                             -
 -------------------------------------------------------------------------------
 ROUTINE             CALLS      AVE VOLUME [Bytes]
 MP_Bcast               25                     12.
 MP_Allreduce        12979                     67.
 MP_Alltoall          9270                2885193.
 MP_ISend            38852                7270935.
 MP_IRecv            38852                7270432.
 -------------------------------------------------------------------------------

 -------------------------------------------------------------------------------
 -                                                                             -
 -                                GRID STATISTICS                              -
 -                                                                             -
 -------------------------------------------------------------------------------
 LP    KERNEL             BACKEND                              COUNT     PERCENT
 1     collocate ortho    REF                              135745315      21.33%
 1     integrate ortho    REF                              130493500      20.51%
 2     integrate ortho    REF                               88995620      13.99%
 2     collocate ortho    REF                               84560451      13.29%
 0     collocate ortho    REF                               75171698      11.81%
 0     integrate ortho    REF                               68664071      10.79%
 3     integrate ortho    REF                               26282166       4.13%
 3     collocate ortho    REF                               20755016       3.26%
 4     integrate ortho    REF                                3293394       0.52%
 4     collocate ortho    REF                                1638196       0.26%
 0     collocate general  REF                                 270336       0.04%
 1     integrate general  REF                                 270336       0.04%
 5     integrate ortho    REF                                 141925       0.02%
 -------------------------------------------------------------------------------

 MEMORY| Estimated peak process memory [MiB]                                2696

 -------------------------------------------------------------------------------
 -                                                                             -
 -                         MESSAGE PASSING PERFORMANCE                         -
 -                                                                             -
 -------------------------------------------------------------------------------

 ROUTINE             CALLS      AVE VOLUME [Bytes]
 MP_Group                4
 MP_Bcast             3951                  59889.
 MP_Allreduce        10814                   2345.
 MP_Sync                70
 MP_Alltoall          1700               35420218.
 MP_ISendRecv         7620                 241056.
 MP_Wait             19810
 MP_ISend            10600                 728388.
 MP_IRecv            10600                 728388.
 -------------------------------------------------------------------------------


 -------------------------------------------------------------------------------
 -                                                                             -
 -                           R E F E R E N C E S                               -
 -                                                                             -
 -------------------------------------------------------------------------------
 
 CP2K version 8.2, the CP2K developers group (2021).
 CP2K is freely available from https://www.cp2k.org/ .

 Kuehne,Thomas D.; Iannuzzi,Marcella; Del Ben,Mauro;
 Rybkin,Vladimir V.; Seewald,Patrick; Stein,Frederick; Laino,Teodoro;
 Khaliullin,Rustam Z.; Schuett,Ole; Schiffmann,Florian; Golze,Dorothea;
 Wilhelm,Jan; Chulkov,Sergey; Bani-Hashemian,Mohammad Hossein;
 Weber,Valery; Borstnik,Urban; Taillefumier,Mathieu;
 Jakobovits,Alice Shoshana; Lazzaro,Alfio; Pabst,Hans; Mueller,Tiziano;
 Schade,Robert; Guidon,Manuel; Andermatt,Samuel; Holmberg,Nico;
 Schenter,Gregory K.; Hehn,Anna; Bussy,Augustin; Belleflamme,Fabian;
 Tabacchi,Gloria; Gloess,Andreas; Lass,Michael; Bethune,Iain;
 Mundy,Christopher J.; Plessl,Christian; Watkins,Matt;
 VandeVondele,Joost; Krack,Matthias; Hutter,Juerg. 
 The Journal of Chemical Physics, 152 (19), (2020). 
 CP2K: An electronic structure and molecular dynamics software package -
 Quickstep: Efficient and accurate electronic structure calculations.
 https://doi.org/10.1063/5.0007045

 Schuett, Ole; Messmer, Peter; Hutter, Juerg; VandeVondele, Joost. 
 Electronic Structure Calculations on Graphics Processing Units, John
 Wiley & Sons, Ltd, 173-190 (2016). 
 GPU-Accelerated Sparse Matrix-Matrix Multiplication for
 Linear Scaling Density Functional Theory.
 https://doi.org/10.1002/9781118670712.ch8

 Borstnik, U; VandeVondele, J; Weber, V; Hutter, J. 
 PARALLEL COMPUTING, 40 (5-6), 47-58 (2014). 
 Sparse matrix multiplication: The distributed block-compressed sparse
 row library.
 https://doi.org/10.1016/j.parco.2014.03.012

 Hutter, J; Iannuzzi, M; Schiffmann, F; VandeVondele, J. 
 WIREs Comput Mol Sci., 4 (1), 15-25 (2014). 
 CP2K: atomistic simulations of condensed matter systems.
 https://doi.org/10.1002/wcms.1159

 Marek, A; Blum, V; Johanni, R; Havu, V; Lang, B; Auckenthaler, T;
 Heinecke, A; Bungartz, H; Lederer, H. 
 Journal of Physics: Condensed Matter, 26 (21), (2014). 
 The ELPA library: scalable parallel eigenvalue solutions for
 electronic structure
 theory and computational science.
 https://doi.org/10.1088/0953-8984/26/21/213201

 Krack, M. 
 THEORETICAL CHEMISTRY ACCOUNTS, 114 (1-3), 145-152 (2005). 
 Pseudopotentials for H to Kr optimized for gradient-corrected
 exchange-correlation functionals.
 https://doi.org/10.1007/s00214-005-0655-y

 VandeVondele, J; Krack, M; Mohamed, F; Parrinello, M; Chassaing, T;
 Hutter, J. COMPUTER PHYSICS COMMUNICATIONS, 167 (2), 103-128 (2005). 
 QUICKSTEP: Fast and accurate density functional calculations using a
 mixed Gaussian and plane waves approach.
 https://doi.org/10.1016/j.cpc.2004.12.014

 Frigo, M; Johnson, SG. 
 PROCEEDINGS OF THE IEEE, 93 (2), 216-231 (2005). 
 The design and implementation of FFTW3.
 https://doi.org/10.1109/JPROC.2004.840301

 VandeVondele, J; Hutter, J. 
 JOURNAL OF CHEMICAL PHYSICS, 118 (10), 4365-4369 (2003). 
 An efficient orbital transformation method for electronic structure
 calculations.
 https://doi.org/10.1063/1.1543154

 Hartwigsen, C; Goedecker, S; Hutter, J. 
 PHYSICAL REVIEW B, 58 (7), 3641-3662 (1998). 
 Relativistic separable dual-space Gaussian pseudopotentials from H to Rn.
 https://doi.org/10.1103/PhysRevB.58.3641

 Lippert, G; Hutter, J; Parrinello, M. 
 MOLECULAR PHYSICS, 92 (3), 477-487 (1997). 
 A hybrid Gaussian and plane wave density functional scheme.
 https://doi.org/10.1080/002689797170220

 Goedecker, S; Teter, M; Hutter, J. 
 PHYSICAL REVIEW B, 54 (3), 1703-1710 (1996). 
 Separable dual-space Gaussian pseudopotentials.
 https://doi.org/10.1103/PhysRevB.54.1703


 -------------------------------------------------------------------------------
 -                                                                             -
 -                                T I M I N G                                  -
 -                                                                             -
 -------------------------------------------------------------------------------
 SUBROUTINE                       CALLS  ASD         SELF TIME        TOTAL TIME
                                MAXIMUM       AVERAGE  MAXIMUM  AVERAGE  MAXIMUM
 CP2K                                 1  1.0    0.181    0.184  465.902  465.902
 qs_mol_dyn_low                       1  2.0    0.003    0.004  465.345  465.365
 qs_forces                           11  3.9    0.003    0.004  465.216  465.224
 qs_energies                         11  4.9    0.001    0.001  456.068  456.237
 scf_env_do_scf                      11  5.9    0.001    0.001  422.032  422.044
 velocity_verlet                     10  3.0    0.001    0.001  317.704  317.709
 scf_env_do_scf_inner_loop          116  6.6    0.003    0.011  289.480  289.482
 dbcsr_multiply_generic            2431 12.5    0.246    0.258  213.556  217.401
 qs_scf_new_mos                     116  7.6    0.001    0.001  207.306  208.324
 qs_scf_loop_do_ot                  116  8.6    0.001    0.001  207.305  208.322
 ot_scf_mini                        116  9.6    0.004    0.004  194.931  195.858
 multiply_cannon                   2431 13.5    0.313    0.340  147.255  154.399
 multiply_cannon_loop              2431 14.5    0.172    0.180  142.428  149.870
 multiply_cannon_multrec           9724 15.5  133.219  137.950  133.261  137.993
 init_scf_loop                       11  6.9    0.000    0.000  132.059  132.067
 ot_mini                            116 10.6    0.001    0.001  124.507  125.279
 prepare_preconditioner              11  7.9    0.000    0.000  123.665  123.743
 make_preconditioner                 11  8.9    0.000    0.000  123.665  123.743
 make_full_inverse_cholesky          11  9.9    0.000    0.000  119.621  120.118
 cp_fm_cholesky_invert               11 10.9   77.667   77.679   77.667   77.679
 qs_ot_get_derivative               116 11.6    0.002    0.002   65.240   66.107
 ot_diis_step                       116 11.6    0.007    0.008   58.655   58.656
 rebuild_ks_matrix                  127  8.3    0.001    0.001   57.514   58.068
 qs_ks_build_kohn_sham_matrix       127  9.3    0.020    0.022   57.513   58.066
 apply_preconditioner_dbcsr         127 12.6    0.000    0.000   53.972   55.697
 apply_single                       127 13.6    0.001    0.001   53.972   55.696
 qs_ks_update_qs_env                127  7.6    0.002    0.003   52.806   53.331
 make_m2s                          4862 13.5    0.126    0.136   47.592   48.264
 qs_rho_update_rho                  127  7.7    0.001    0.001   36.812   37.030
 calculate_rho_elec                 127  8.7    0.546    0.558   36.811   37.029
 make_images                       4862 14.5    7.167    8.068   31.969   34.328
 cp_fm_cholesky_decompose            22 10.9   33.965   34.094   33.965   34.094
 qs_ot_get_p                        127 10.4    0.001    0.001   31.594   32.238
 mp_waitall_1                    125898 16.6   20.451   28.165   20.451   28.165
 dbcsr_make_dense_low              6216 15.5    0.071    0.075   19.474   26.692
 make_dense_data                   6216 16.5   18.690   26.028   19.379   26.595
 init_scf_run                        11  5.9    0.000    0.001   23.877   23.891
 scf_env_initial_rho_setup           11  6.9    0.000    0.001   23.877   23.890
 qs_ot_get_derivative_diag           62 12.2    0.003    0.003   23.174   23.716
 make_images_data                  4862 15.5    0.066    0.075   19.035   22.448
 dbcsr_make_images_dense           4236 14.8    0.040    0.044   15.246   22.427
 grid_collocate_task_list           127  9.7   21.842   22.214   21.842   22.214
 hybrid_alltoall_any               5031 16.4    2.213   10.985   18.538   21.612
 wfi_extrapolate                     11  7.9    0.001    0.001   21.272   21.272
 sum_up_and_integrate               127 10.3    0.144    0.150   20.108   20.154
 integrate_v_rspace                 127 11.3    0.005    0.005   19.964   20.013
 qs_ot_p2m_diag                      66 11.2    0.954    0.985   19.870   19.906
 pw_transfer                       1535 11.6    0.095    0.103   18.241   18.912
 fft_wrap_pw1pw2                   1281 12.7    0.011    0.012   17.946   18.611
 cp_dbcsr_syevd                      66 12.2    0.008    0.009   17.426   17.435
 fft_wrap_pw1pw2_140                519 13.2    0.861    0.882   16.676   17.320
 cp_fm_diag_elpa                     66 13.2    0.001    0.001   16.969   16.975
 cp_fm_diag_elpa_base                66 14.2   16.643   16.678   16.956   16.957
 fft3d_ps                          1281 14.7   11.253   11.988   15.924   16.600
 qs_ot_get_derivative_taylor         54 13.0    0.002    0.003   15.492   15.835
 calculate_dm_sparse                127  9.5    0.001    0.001   13.902   15.154
 qs_ot_get_orbitals                 116 10.6    0.001    0.001   13.900   14.097
 density_rs2pw                      127  9.7    0.005    0.005   11.781   12.389
 grid_integrate_task_list           127 12.3   11.945   12.234   11.945   12.234
 dbcsr_complete_redistribute        361 12.5    5.734    5.954   10.809   11.845
 dbcsr_dot_sd                      1303 12.0    4.484    4.557    9.658   11.521
 cp_dbcsr_sm_fm_multiply             37  9.5    0.002    0.002   11.178   11.210
 mp_irecv_dv                      28186 15.8    5.387    9.935    5.387    9.935
 mp_sum_d                          4422 12.1    7.489    9.717    7.489    9.717
 mp_sum_l                         11831 13.4    7.437    9.447    7.437    9.447
 -------------------------------------------------------------------------------

 The number of warnings for this run is : 1
 
 -------------------------------------------------------------------------------
  **** **** ******  **  PROGRAM ENDED AT                 2022-01-17 15:32:48.251
 ***** ** ***  *** **   PROGRAM RAN ON                                 nid002374
 **    ****   ******    PROGRAM RAN BY                                    hjudge
 ***** **    ** ** **   PROGRAM PROCESS ID                                 56922
  **** **  *******  **  PROGRAM STOPPED IN /mnt/lustre/a2fs-work2/work/z19/z19/h
                                           judge/CUG/archer2/CPU/CP2K/H2O-512/2N
                                           ODES/128CPN/16THREADS
