 DBCSR| CPU Multiplication driver                                           BLAS
 DBCSR| Multrec recursion limit                                              512
 DBCSR| Multiplication stack size                                           1000
 DBCSR| Maximum elements for images                                    UNLIMITED
 DBCSR| Multiplicative factor virtual images                                   1
 DBCSR| Use multiplication densification                                       T
 DBCSR| Multiplication size stacks                                             3
 DBCSR| Use memory pool for CPU allocation                                     F
 DBCSR| Number of 3D layers                                               SINGLE
 DBCSR| Use MPI memory allocation                                              F
 DBCSR| Use RMA algorithm                                                      F
 DBCSR| Use Communication thread                                               T
 DBCSR| Communication thread load                                             83
 DBCSR| MPI: My node id                                                        0
 DBCSR| MPI: Number of nodes                                                 256
 DBCSR| OMP: Current number of threads                                         2
 DBCSR| OMP: Max number of threads                                             2
 DBCSR| Split modifier for TAS multiplication algorithm                  1.0E+00


  **** **** ******  **  PROGRAM STARTED AT               2022-01-17 17:03:01.739
 ***** ** ***  *** **   PROGRAM STARTED ON                             nid001698
 **    ****   ******    PROGRAM STARTED BY                                hjudge
 ***** **    ** ** **   PROGRAM PROCESS ID                                120887
  **** **  *******  **  PROGRAM STARTED IN /mnt/lustre/a2fs-work2/work/z19/z19/h
                                           judge/CUG/archer2/CPU/CP2K/H2O-512/4N
                                           ODES/128CPN/2THREADS

 CP2K| version string:                                          CP2K version 8.2
 CP2K| source code revision number:                                  git:310b7ab
 CP2K| cp2kflags: omp libint fftw3 libxc elpa parallel mpi3 scalapack plumed2   
 CP2K| is freely available from                            https://www.cp2k.org/
 CP2K| Program compiled at                          Thu Dec  2 10:30:45 GMT 2021
 CP2K| Program compiled on                                                  ln02
 CP2K| Program compiled for                                              ARCHER2
 CP2K| Data directory path         /work/y07/shared/apps/core/cp2k/cp2k-8.2/data
 CP2K| Input file name                                               H2O-512.inp

 GLOBAL| Force Environment number                                              1
 GLOBAL| Basis set file name                                      GTH_BASIS_SETS
 GLOBAL| Potential file name                                           POTENTIAL
 GLOBAL| MM Potential file name                                     MM_POTENTIAL
 GLOBAL| Coordinate file name                                      __STD_INPUT__
 GLOBAL| Method name                                                        CP2K
 GLOBAL| Project name                                                    H2O-512
 GLOBAL| Run type                                                             MD
 GLOBAL| FFT library                                                       FFTW3
 GLOBAL| Diagonalization library                                            ELPA
 GLOBAL| Minimum number of eigenvectors for ELPA usage                        16
 GLOBAL| Orthonormality check for eigenvectors                          DISABLED
 GLOBAL| Matrix multiplication library                                    SCALAP
 GLOBAL| All-to-all communication in single precision                          F
 GLOBAL| FFTs using library dependent lengths                                  F
 GLOBAL| Grid backend                                                       AUTO
 GLOBAL| Global print level                                                  LOW
 GLOBAL| MPI I/O enabled                                                       T
 GLOBAL| Total number of message passing processes                           256
 GLOBAL| Number of threads for this process                                    2
 GLOBAL| This output is from process                                           0
 GLOBAL| CPU model name                          AMD EPYC 7742 64-Core Processor
 GLOBAL| CPUID                                                              1002

 MEMORY| system memory details [Kb]
 MEMORY|                        rank 0           min           max       average
 MEMORY| MemTotal            263528088     263528088     263528088     263528088
 MEMORY| MemFree             245388480     245388480     246381064     245972066
 MEMORY| Buffers                 35020         28100         35020         30580
 MEMORY| Cached                1471464        774280       1471464       1044862
 MEMORY| Slab                  1647904       1577800       1659232       1623754
 MEMORY| SReclaimable           110368         88208        110368        101081
 MEMORY| MemLikelyFree       247005332     247005332     247272552     247148590


 GENERATE|  Preliminary Number of Bonds generated:                             0
 GENERATE|  Achieved consistency in connectivity generation.

 *******************************************************************************
 *******************************************************************************
 **                                                                           **
 **     #####                         ##              ##                      **
 **    ##   ##            ##          ##              ##                      **
 **   ##     ##                       ##            ######                    **
 **   ##     ##  ##   ##  ##   #####  ##  ##   ####   ##    #####    #####    **
 **   ##     ##  ##   ##  ##  ##      ## ##   ##      ##   ##   ##  ##   ##   **
 **   ##  ## ##  ##   ##  ##  ##      ####     ###    ##   ######   ######    **
 **    ##  ###   ##   ##  ##  ##      ## ##      ##   ##   ##       ##        **
 **     #######   #####   ##   #####  ##  ##  ####    ##    #####   ##        **
 **           ##                                                    ##        **
 **                                                                           **
 **                                                ... make the atoms dance   **
 **                                                                           **
 **            Copyright (C) by CP2K developers group (2000-2021)             **
 **                      J. Chem. Phys. 152, 194103 (2020)                    **
 **                                                                           **
 *******************************************************************************


 TOTAL NUMBERS AND MAXIMUM NUMBERS

  Total number of            - Atomic kinds:                                   2
                             - Atoms:                                       1536
                             - Shell sets:                                  3072
                             - Shells:                                      9216
                             - Primitive Cartesian functions:              10752
                             - Cartesian basis functions:                  21504
                             - Spherical basis functions:                  20480

  Maximum angular momentum of- Orbital basis functions:                        2
                             - Local part of the GTH pseudopotential:          2
                             - Non-local part of the GTH pseudopotential:      0


 SCF PARAMETERS         Density guess:                                    ATOMIC
                        --------------------------------------------------------
                        max_scf:                                              50
                        max_scf_history:                                       0
                        max_diis:                                              4
                        --------------------------------------------------------
                        eps_scf:                                        1.00E-05
                        eps_scf_history:                                0.00E+00
                        eps_diis:                                       1.00E-01
                        eps_eigval:                                     1.00E-05
                        --------------------------------------------------------
                        level_shift [a.u.]:                                 0.00
                        --------------------------------------------------------
                        No outer SCF

 MD_PAR| Molecular dynamics protocol (MD input parameters)
 MD_PAR| Ensemble type                                                       NVE
 MD_PAR| Number of time steps                                                 10
 MD_PAR| Time step [fs]                                                 0.500000
 MD_PAR| Temperature [K]                                              300.000000
 MD_PAR| Temperature tolerance [K]                                      0.000000
 MD_PAR| Print MD information every                                    1 step(s)
 MD_PAR| File type   Print frequency [steps]                          File names
 MD_PAR| Coordinates          1                                H2O-512-pos-1.xyz
 MD_PAR| Velocities           1                                H2O-512-vel-1.xyz
 MD_PAR| Energies             1                                   H2O-512-1.ener
 MD_PAR| Dump                20                                H2O-512-1.restart

 ROT| Rotational analysis information
 ROT| Principal axes and moments of inertia [a.u.]
 ROT|                           1                   2                   3
 ROT| Eigenvalues      6.12011925703E+09   6.17734003456E+09   6.32378668800E+09
 ROT|      x              0.229702356692      0.883899672739      0.407379670409
 ROT|      y              0.711719446246      0.132949289019     -0.689768016354
 ROT|      z              0.663846561462     -0.448381372362      0.598549820611
 ROT| Number of rotovibrational vectors                                        6

 DOF| Calculation of degrees of freedom
 DOF| Number of atoms                                                       1536
 DOF| Number of intramolecular constraints                                     0
 DOF| Number of intermolecular constraints                                     0
 DOF| Invariants (translations + rotations)                                    3
 DOF| Degrees of freedom                                                    4605

 DOF| Restraints information
 DOF| Number of intramolecular restraints                                      0
 DOF| Number of intermolecular restraints                                      0

 MD_VEL| Velocities initialization
 MD_VEL| Initial temperature [K]                                      300.000000
 MD_VEL| COM velocity             0.0000000000    -0.0000000000     0.0000000000

 Number of electrons:                                                       4096
 Number of occupied orbitals:                                               2048
 Number of molecular orbitals:                                              2048

 Number of orbital functions:                                              20480
 Number of independent orbital functions:                                  20480

 Extrapolation method: initial_guess


 SCF WAVEFUNCTION OPTIMIZATION

  ----------------------------------- OT ---------------------------------------
  Minimizer      : DIIS                : direct inversion
                                         in the iterative subspace
                                         using   7 DIIS vectors
                                         safer DIIS on
  Preconditioner : FULL_KINETIC        : inversion of T + eS
  Precond_solver : DEFAULT
  stepsize       :    0.15000000                  energy_gap     :    0.20000000
  eps_taylor     :   0.10000E-15                  max_taylor     :             4
  ----------------------------------- OT ---------------------------------------

  Step     Update method      Time    Convergence         Total energy    Change
  ------------------------------------------------------------------------------
     1 OT DIIS     0.15E+00    4.3     0.00467324     -8480.4728425690 -8.48E+03
     2 OT DIIS     0.15E+00    1.5     0.00318266     -8587.4488310143 -1.07E+02
     3 OT DIIS     0.15E+00    1.5     0.00347210     -8644.7931966768 -5.73E+01
     4 OT DIIS     0.15E+00    1.5     0.00204380     -8678.2157923835 -3.34E+01
     5 OT DIIS     0.15E+00    1.5     0.00148292     -8717.4624183880 -3.92E+01
     6 OT DIIS     0.15E+00    1.5     0.00119954     -8738.7795043572 -2.13E+01
     7 OT DIIS     0.15E+00    1.5     0.00099038     -8755.0185947301 -1.62E+01
     8 OT DIIS     0.15E+00    1.5     0.00079894     -8767.5347825454 -1.25E+01
     9 OT DIIS     0.15E+00    1.5     0.00061581     -8780.1862563835 -1.27E+01
    10 OT DIIS     0.15E+00    1.5     0.00048147     -8788.6147471043 -8.43E+00
    11 OT DIIS     0.15E+00    1.5     0.00038278     -8794.1215228889 -5.51E+00
    12 OT DIIS     0.15E+00    1.5     0.00031960     -8797.5363589594 -3.41E+00
    13 OT DIIS     0.15E+00    1.5     0.00026435     -8799.9344030908 -2.40E+00
    14 OT DIIS     0.15E+00    1.5     0.00023004     -8801.7089305035 -1.77E+00
    15 OT DIIS     0.15E+00    1.5     0.00019592     -8803.0697888564 -1.36E+00
    16 OT DIIS     0.15E+00    1.5     0.00016642     -8804.2000843411 -1.13E+00
    17 OT DIIS     0.15E+00    1.5     0.00014164     -8805.0506655806 -8.51E-01
    18 OT DIIS     0.15E+00    1.5     0.00012638     -8805.6725421207 -6.22E-01
    19 OT DIIS     0.15E+00    1.5     0.00010717     -8806.2171485645 -5.45E-01
    20 OT DIIS     0.15E+00    1.5     0.00009868     -8806.5290018963 -3.12E-01
    21 OT DIIS     0.15E+00    1.5     0.00008484     -8806.8772741195 -3.48E-01
    22 OT DIIS     0.15E+00    1.6     0.00007717     -8807.0943334427 -2.17E-01
    23 OT DIIS     0.15E+00    1.5     0.00006815     -8807.2974129499 -2.03E-01
    24 OT DIIS     0.15E+00    1.6     0.00006019     -8807.4529078233 -1.55E-01
    25 OT DIIS     0.15E+00    1.5     0.00005010     -8807.5989834234 -1.46E-01
    26 OT DIIS     0.15E+00    1.5     0.00004000     -8807.6989662228 -1.00E-01
    27 OT DIIS     0.15E+00    1.5     0.00003462     -8807.7827122402 -8.37E-02
    28 OT DIIS     0.15E+00    1.5     0.00003071     -8807.7824932500  2.19E-04
    29 OT DIIS     0.15E+00    1.6     0.00002690     -8807.8200993195 -3.76E-02
    30 OT DIIS     0.15E+00    1.5     0.00002500     -8807.8399634016 -1.99E-02
    31 OT DIIS     0.15E+00    1.5     0.00002395     -8807.8566460922 -1.67E-02
    32 OT DIIS     0.15E+00    1.5     0.00002328     -8807.8682689643 -1.16E-02
    33 OT DIIS     0.15E+00    1.5     0.00002304     -8807.8827275965 -1.45E-02
    34 OT DIIS     0.15E+00    1.5     0.00002300     -8807.8854890296 -2.76E-03
    35 OT SD       0.15E+00    1.5     0.00002301     -8807.8907467596 -5.26E-03
    36 OT SD       0.15E+00    1.5     0.00002308     -8807.8940817096 -3.33E-03
    37 OT SD       0.15E+00    1.5     0.00002318     -8807.8974407043 -3.36E-03
    38 OT SD       0.15E+00    1.5     0.00002329     -8807.9008284718 -3.39E-03
    39 OT SD       0.15E+00    1.6     0.00002341     -8807.9042491083 -3.42E-03
    40 OT SD       0.15E+00    1.5     0.00002354     -8807.9077063659 -3.46E-03
    41 OT SD       0.15E+00    1.5     0.00002369     -8807.9112037365 -3.50E-03
    42 OT SD       0.15E+00    1.5     0.00002384     -8807.9147444866 -3.54E-03
    43 OT SD       0.15E+00    1.5     0.00002400     -8807.9183316715 -3.59E-03
    44 OT SD       0.15E+00    1.6     0.00002417     -8807.9219681410 -3.64E-03
    45 OT DIIS     0.15E+00    1.5     0.00002435     -8807.9256565391 -3.69E-03
    46 OT DIIS     0.15E+00    1.5     0.00004964     -8807.9134294771  1.22E-02
    47 OT SD       0.15E+00    1.5     0.00005091     -8807.9142739859 -8.45E-04
    48 OT SD       0.15E+00    1.5     0.00004016     -8807.9285442000 -1.43E-02
    49 OT SD       0.15E+00    1.6     0.00003559     -8807.9380281268 -9.48E-03
    50 OT SD       0.15E+00    1.5     0.00003336     -8807.9457088996 -7.68E-03

  Leaving inner SCF loop after reaching    50 steps.


  Electronic density on regular grids:      -4096.0000074541       -0.0000074541
  Core density on regular grids:             4095.9999999927       -0.0000000073
  Total charge density on r-space grids:       -0.0000074614
  Total charge density g-space grids:          -0.0000074614

  Overlap energy of the core charge distribution:               0.00004500798551
  Self energy of the core charge distribution:             -22442.43995950839599
  Core Hamiltonian energy:                                   6603.78903593972609
  Hartree energy:                                            9161.23624290540101
  Exchange-correlation energy:                              -2130.53107324432949

  Total energy:                                             -8807.94570889961324

 *** WARNING in qs_scf.F:576 :: SCF run NOT converged ***


 ENERGY| Total FORCE_EVAL ( QS ) energy [a.u.]:            -8807.952573412843776

 MD_INI| MD initialization
 MD_INI| Potential energy [hartree]                          -0.880795257341E+04
 MD_INI| Kinetic energy [hartree]                             0.218747769838E+01
 MD_INI| Temperature [K]                                              300.000000
 MD_INI| Cell volume [bohr^3]                                 1.037187315243E+05
 MD_INI| Cell volume [ang^3]                                  1.536953010365E+04
 MD_INI| Cell lengths [bohr]      4.69842608E+01  4.69842608E+01  4.69842608E+01
 MD_INI| Cell lengths [ang]       2.48630000E+01  2.48630000E+01  2.48630000E+01
 MD_INI| Cell angles [deg]        9.00000000E+01  9.00000000E+01  9.00000000E+01

 Number of electrons:                                                       4096
 Number of occupied orbitals:                                               2048
 Number of molecular orbitals:                                              2048

 Number of orbital functions:                                              20480
 Number of independent orbital functions:                                  20480

 Extrapolation method: PS Nth order
 Extrapolation order:  0


 SCF WAVEFUNCTION OPTIMIZATION

  ----------------------------------- OT ---------------------------------------
  Minimizer      : DIIS                : direct inversion
                                         in the iterative subspace
                                         using   7 DIIS vectors
                                         safer DIIS on
  Preconditioner : FULL_KINETIC        : inversion of T + eS
  Precond_solver : DEFAULT
  stepsize       :    0.15000000                  energy_gap     :    0.20000000
  eps_taylor     :   0.10000E-15                  max_taylor     :             4
  ----------------------------------- OT ---------------------------------------

  Step     Update method      Time    Convergence         Total energy    Change
  ------------------------------------------------------------------------------
     1 OT DIIS     0.15E+00    4.0     0.00010167     -8807.9546221595 -8.81E+03
     2 OT DIIS     0.15E+00    1.3     0.00007399     -8808.0093722039 -5.48E-02
     3 OT DIIS     0.15E+00    1.3     0.00005493     -8808.0647626838 -5.54E-02
     4 OT DIIS     0.15E+00    1.3     0.00004934     -8808.1021802397 -3.74E-02
     5 OT DIIS     0.15E+00    1.5     0.00004590     -8808.1451139169 -4.29E-02
     6 OT DIIS     0.15E+00    1.6     0.00004348     -8808.1873130092 -4.22E-02
     7 OT DIIS     0.15E+00    1.5     0.00003910     -8808.2476910164 -6.04E-02
     8 OT DIIS     0.15E+00    1.5     0.00002828     -8808.3274818996 -7.98E-02
     9 OT DIIS     0.15E+00    1.5     0.00002025     -8808.3586912204 -3.12E-02
    10 OT DIIS     0.15E+00    1.5     0.00001287     -8808.3785432007 -1.99E-02
    11 OT DIIS     0.15E+00    1.6     0.00001026     -8808.3792693026 -7.26E-04
    12 OT DIIS     0.15E+00    1.5     0.00000704     -8808.3828070491 -3.54E-03

  *** SCF run converged in    12 steps ***


  Electronic density on regular grids:      -4096.0000079114       -0.0000079114
  Core density on regular grids:             4095.9999999916       -0.0000000084
  Total charge density on r-space grids:       -0.0000079198
  Total charge density g-space grids:          -0.0000079198

  Overlap energy of the core charge distribution:               0.00004378132417
  Self energy of the core charge distribution:             -22442.43995950839599
  Core Hamiltonian energy:                                   6601.18541654138426
  Hartree energy:                                            9162.93986524002685
  Exchange-correlation energy:                              -2130.06817310348561

  Total energy:                                             -8808.38280704914541

 ENERGY| Total FORCE_EVAL ( QS ) energy [a.u.]:            -8808.383483482095471

 MD| ***************************************************************************
 MD| Step number                                                               1
 MD| Time [fs]                                                          0.500000
 MD| Conserved quantity [hartree]                            -0.880615757256E+04
 MD| ---------------------------------------------------------------------------
 MD|                                          Instantaneous             Averages
 MD| CPU time per MD step [s]                    110.741449           110.741449
 MD| Energy drift per atom [K]          -0.806863520284E+02   0.000000000000E+00
 MD| Potential energy [hartree]         -0.880838348348E+04  -0.880838348348E+04
 MD| Kinetic energy [hartree]            0.222591092524E+01   0.222591092524E+01
 MD| Temperature [K]                             305.270896           305.270896
 MD| ***************************************************************************

 Number of electrons:                                                       4096
 Number of occupied orbitals:                                               2048
 Number of molecular orbitals:                                              2048

 Number of orbital functions:                                              20480
 Number of independent orbital functions:                                  20480

 Extrapolation method: PS Nth order
 Extrapolation order:  1


 SCF WAVEFUNCTION OPTIMIZATION

  ----------------------------------- OT ---------------------------------------
  Minimizer      : DIIS                : direct inversion
                                         in the iterative subspace
                                         using   7 DIIS vectors
                                         safer DIIS on
  Preconditioner : FULL_KINETIC        : inversion of T + eS
  Precond_solver : DEFAULT
  stepsize       :    0.15000000                  energy_gap     :    0.20000000
  eps_taylor     :   0.10000E-15                  max_taylor     :             4
  ----------------------------------- OT ---------------------------------------

  Step     Update method      Time    Convergence         Total energy    Change
  ------------------------------------------------------------------------------
     1 OT DIIS     0.15E+00    4.0     0.00008001     -8808.4313081201 -8.81E+03
     2 OT DIIS     0.15E+00    1.3     0.00005271     -8808.4637435560 -3.24E-02
     3 OT DIIS     0.15E+00    1.3     0.00003321     -8808.4886493513 -2.49E-02
     4 OT DIIS     0.15E+00    1.3     0.00002251     -8808.5029450789 -1.43E-02
     5 OT DIIS     0.15E+00    1.3     0.00001407     -8808.5119288217 -8.98E-03
     6 OT DIIS     0.15E+00    1.3     0.00000837     -8808.5159226579 -3.99E-03

  *** SCF run converged in     6 steps ***


  Electronic density on regular grids:      -4096.0000084065       -0.0000084065
  Core density on regular grids:             4095.9999999941       -0.0000000059
  Total charge density on r-space grids:       -0.0000084124
  Total charge density g-space grids:          -0.0000084124

  Overlap energy of the core charge distribution:               0.00003948980116
  Self energy of the core charge distribution:             -22442.43995950839599
  Core Hamiltonian energy:                                   6592.75633433364419
  Hartree energy:                                            9168.97934807103047
  Exchange-correlation energy:                              -2127.81168504396646

  Total energy:                                             -8808.51592265788713

 ENERGY| Total FORCE_EVAL ( QS ) energy [a.u.]:            -8808.517234296941751

 MD| ***************************************************************************
 MD| Step number                                                               2
 MD| Time [fs]                                                          1.000000
 MD| Conserved quantity [hartree]                            -0.880616181857E+04
 MD| ---------------------------------------------------------------------------
 MD|                                          Instantaneous             Averages
 MD| CPU time per MD step [s]                     11.884973            61.313211
 MD| Energy drift per atom [K]          -0.815592573361E+02  -0.407796286680E+02
 MD| Potential energy [hartree]         -0.880851723430E+04  -0.880845035889E+04
 MD| Kinetic energy [hartree]            0.235541572932E+01   0.229066332728E+01
 MD| Temperature [K]                             323.031736           314.151316
 MD| ***************************************************************************

 Number of electrons:                                                       4096
 Number of occupied orbitals:                                               2048
 Number of molecular orbitals:                                              2048

 Number of orbital functions:                                              20480
 Number of independent orbital functions:                                  20480

 Extrapolation method: PS Nth order
 Extrapolation order:  2


 SCF WAVEFUNCTION OPTIMIZATION

  ----------------------------------- OT ---------------------------------------
  Minimizer      : DIIS                : direct inversion
                                         in the iterative subspace
                                         using   7 DIIS vectors
                                         safer DIIS on
  Preconditioner : FULL_KINETIC        : inversion of T + eS
  Precond_solver : DEFAULT
  stepsize       :    0.15000000                  energy_gap     :    0.20000000
  eps_taylor     :   0.10000E-15                  max_taylor     :             4
  ----------------------------------- OT ---------------------------------------

  Step     Update method      Time    Convergence         Total energy    Change
  ------------------------------------------------------------------------------
     1 OT DIIS     0.15E+00    4.0     0.00008986     -8808.3717640926 -8.81E+03
     2 OT DIIS     0.15E+00    1.3     0.00007426     -8808.4174477947 -4.57E-02
     3 OT DIIS     0.15E+00    1.3     0.00005875     -8808.4861988085 -6.88E-02
     4 OT DIIS     0.15E+00    1.3     0.00004979     -8808.5436778355 -5.75E-02
     5 OT DIIS     0.15E+00    1.3     0.00004006     -8808.6033816150 -5.97E-02
     6 OT DIIS     0.15E+00    1.5     0.00002840     -8808.6545526529 -5.12E-02
     7 OT DIIS     0.15E+00    1.5     0.00001854     -8808.6820972940 -2.75E-02
     8 OT DIIS     0.15E+00    1.5     0.00001252     -8808.6920684818 -9.97E-03
     9 OT DIIS     0.15E+00    1.5     0.00000891     -8808.6959103081 -3.84E-03

  *** SCF run converged in     9 steps ***


  Electronic density on regular grids:      -4096.0000081507       -0.0000081507
  Core density on regular grids:             4095.9999999985       -0.0000000015
  Total charge density on r-space grids:       -0.0000081522
  Total charge density g-space grids:          -0.0000081522

  Overlap energy of the core charge distribution:               0.00003222727870
  Self energy of the core charge distribution:             -22442.43995950839599
  Core Hamiltonian energy:                                   6579.97333326405806
  Hartree energy:                                            9178.11110234563603
  Exchange-correlation energy:                              -2124.34041863664243

  Total energy:                                             -8808.69591030806623

 ENERGY| Total FORCE_EVAL ( QS ) energy [a.u.]:            -8808.697758184409395

 MD| ***************************************************************************
 MD| Step number                                                               3
 MD| Time [fs]                                                          1.500000
 MD| Conserved quantity [hartree]                            -0.880616479822E+04
 MD| ---------------------------------------------------------------------------
 MD|                                          Instantaneous             Averages
 MD| CPU time per MD step [s]                     16.989089            46.538504
 MD| Energy drift per atom [K]          -0.821718214095E+02  -0.545770262485E+02
 MD| Potential energy [hartree]         -0.880869775818E+04  -0.880853282532E+04
 MD| Kinetic energy [hartree]            0.253295996525E+01   0.237142887327E+01
 MD| Temperature [K]                             347.380908           325.227847
 MD| ***************************************************************************

 Number of electrons:                                                       4096
 Number of occupied orbitals:                                               2048
 Number of molecular orbitals:                                              2048

 Number of orbital functions:                                              20480
 Number of independent orbital functions:                                  20480

 Extrapolation method: PS Nth order
 Extrapolation order:  3


 SCF WAVEFUNCTION OPTIMIZATION

  ----------------------------------- OT ---------------------------------------
  Minimizer      : DIIS                : direct inversion
                                         in the iterative subspace
                                         using   7 DIIS vectors
                                         safer DIIS on
  Preconditioner : FULL_KINETIC        : inversion of T + eS
  Precond_solver : DEFAULT
  stepsize       :    0.15000000                  energy_gap     :    0.20000000
  eps_taylor     :   0.10000E-15                  max_taylor     :             4
  ----------------------------------- OT ---------------------------------------

  Step     Update method      Time    Convergence         Total energy    Change
  ------------------------------------------------------------------------------
     1 OT DIIS     0.15E+00    4.0     0.00008300     -8808.7601005759 -8.81E+03
     2 OT DIIS     0.15E+00    1.3     0.00005686     -8808.7956183085 -3.55E-02
     3 OT DIIS     0.15E+00    1.3     0.00003614     -8808.8258131078 -3.02E-02
     4 OT DIIS     0.15E+00    1.3     0.00002270     -8808.8440340101 -1.82E-02
     5 OT DIIS     0.15E+00    1.3     0.00001489     -8808.8523327716 -8.30E-03
     6 OT DIIS     0.15E+00    1.3     0.00000969     -8808.8563576450 -4.02E-03

  *** SCF run converged in     6 steps ***


  Electronic density on regular grids:      -4096.0000085822       -0.0000085822
  Core density on regular grids:             4096.0000000009        0.0000000009
  Total charge density on r-space grids:       -0.0000085814
  Total charge density g-space grids:          -0.0000085814

  Overlap energy of the core charge distribution:               0.00002346615514
  Self energy of the core charge distribution:             -22442.43995950839599
  Core Hamiltonian energy:                                   6564.27158943762061
  Hartree energy:                                            9189.38285851926776
  Exchange-correlation energy:                              -2120.07086955968498

  Total energy:                                             -8808.85635764503604

 ENERGY| Total FORCE_EVAL ( QS ) energy [a.u.]:            -8808.858123765265191

 MD| ***************************************************************************
 MD| Step number                                                               4
 MD| Time [fs]                                                          2.000000
 MD| Conserved quantity [hartree]                            -0.880616980129E+04
 MD| ---------------------------------------------------------------------------
 MD|                                          Instantaneous             Averages
 MD| CPU time per MD step [s]                     12.325160            37.985168
 MD| Energy drift per atom [K]          -0.832003654660E+02  -0.617328610529E+02
 MD| Potential energy [hartree]         -0.880885812377E+04  -0.880861414993E+04
 MD| Kinetic energy [hartree]            0.268832247293E+01   0.245065227318E+01
 MD| Temperature [K]                             368.687984           336.092881
 MD| ***************************************************************************

 Number of electrons:                                                       4096
 Number of occupied orbitals:                                               2048
 Number of molecular orbitals:                                              2048

 Number of orbital functions:                                              20480
 Number of independent orbital functions:                                  20480

 Extrapolation method: PS Nth order
 Extrapolation order:  3


 SCF WAVEFUNCTION OPTIMIZATION

  ----------------------------------- OT ---------------------------------------
  Minimizer      : DIIS                : direct inversion
                                         in the iterative subspace
                                         using   7 DIIS vectors
                                         safer DIIS on
  Preconditioner : FULL_KINETIC        : inversion of T + eS
  Precond_solver : DEFAULT
  stepsize       :    0.15000000                  energy_gap     :    0.20000000
  eps_taylor     :   0.10000E-15                  max_taylor     :             4
  ----------------------------------- OT ---------------------------------------

  Step     Update method      Time    Convergence         Total energy    Change
  ------------------------------------------------------------------------------
     1 OT DIIS     0.15E+00    4.0     0.00005398     -8808.8521915639 -8.81E+03
     2 OT DIIS     0.15E+00    1.3     0.00004360     -8808.8685917167 -1.64E-02
     3 OT DIIS     0.15E+00    1.5     0.00002876     -8808.8948199348 -2.62E-02
     4 OT DIIS     0.15E+00    1.6     0.00002104     -8808.9082120072 -1.34E-02
     5 OT DIIS     0.15E+00    1.6     0.00001317     -8808.9185194493 -1.03E-02
     6 OT DIIS     0.15E+00    1.5     0.00000843     -8808.9223714859 -3.85E-03

  *** SCF run converged in     6 steps ***


  Electronic density on regular grids:      -4096.0000071800       -0.0000071800
  Core density on regular grids:             4095.9999999999       -0.0000000001
  Total charge density on r-space grids:       -0.0000071801
  Total charge density g-space grids:          -0.0000071801

  Overlap energy of the core charge distribution:               0.00001548085027
  Self energy of the core charge distribution:             -22442.43995950839599
  Core Hamiltonian energy:                                   6547.40962360639969
  Hartree energy:                                            9201.58656189712383
  Exchange-correlation energy:                              -2115.47861296187739

  Total energy:                                             -8808.92237148589811

 ENERGY| Total FORCE_EVAL ( QS ) energy [a.u.]:            -8808.923934645128611

 MD| ***************************************************************************
 MD| Step number                                                               5
 MD| Time [fs]                                                          2.500000
 MD| Conserved quantity [hartree]                            -0.880617228927E+04
 MD| ---------------------------------------------------------------------------
 MD|                                          Instantaneous             Averages
 MD| CPU time per MD step [s]                     13.320695            33.052273
 MD| Energy drift per atom [K]          -0.837118499314E+02  -0.661286588286E+02
 MD| Potential energy [hartree]         -0.880892393465E+04  -0.880867610687E+04
 MD| Kinetic energy [hartree]            0.275164537555E+01   0.251085089366E+01
 MD| Temperature [K]                             377.372356           344.348776
 MD| ***************************************************************************

 Number of electrons:                                                       4096
 Number of occupied orbitals:                                               2048
 Number of molecular orbitals:                                              2048

 Number of orbital functions:                                              20480
 Number of independent orbital functions:                                  20480

 Extrapolation method: PS Nth order
 Extrapolation order:  3


 SCF WAVEFUNCTION OPTIMIZATION

  ----------------------------------- OT ---------------------------------------
  Minimizer      : DIIS                : direct inversion
                                         in the iterative subspace
                                         using   7 DIIS vectors
                                         safer DIIS on
  Preconditioner : FULL_KINETIC        : inversion of T + eS
  Precond_solver : DEFAULT
  stepsize       :    0.15000000                  energy_gap     :    0.20000000
  eps_taylor     :   0.10000E-15                  max_taylor     :             4
  ----------------------------------- OT ---------------------------------------

  Step     Update method      Time    Convergence         Total energy    Change
  ------------------------------------------------------------------------------
     1 OT DIIS     0.15E+00    4.0     0.00004459     -8808.8152218602 -8.81E+03
     2 OT DIIS     0.15E+00    1.3     0.00003657     -8808.8265180498 -1.13E-02
     3 OT DIIS     0.15E+00    1.3     0.00002088     -8808.8466704297 -2.02E-02
     4 OT DIIS     0.15E+00    1.3     0.00001309     -8808.8539215193 -7.25E-03
     5 OT DIIS     0.15E+00    1.3     0.00000884     -8808.8567199798 -2.80E-03

  *** SCF run converged in     5 steps ***


  Electronic density on regular grids:      -4096.0000062625       -0.0000062625
  Core density on regular grids:             4095.9999999983       -0.0000000017
  Total charge density on r-space grids:       -0.0000062642
  Total charge density g-space grids:          -0.0000062642

  Overlap energy of the core charge distribution:               0.00000971626196
  Self energy of the core charge distribution:             -22442.43995950839599
  Core Hamiltonian energy:                                   6531.17274131441445
  Hartree energy:                                            9213.44167613621175
  Exchange-correlation energy:                              -2111.03118763827160

  Total energy:                                             -8808.85671997977806

 ENERGY| Total FORCE_EVAL ( QS ) energy [a.u.]:            -8808.858095960737046

 MD| ***************************************************************************
 MD| Step number                                                               6
 MD| Time [fs]                                                          3.000000
 MD| Conserved quantity [hartree]                            -0.880617011312E+04
 MD| ---------------------------------------------------------------------------
 MD|                                          Instantaneous             Averages
 MD| CPU time per MD step [s]                     11.003037            29.377401
 MD| Energy drift per atom [K]          -0.832644719392E+02  -0.689846276804E+02
 MD| Potential energy [hartree]         -0.880885809596E+04  -0.880870643839E+04
 MD| Kinetic energy [hartree]            0.268798283987E+01   0.254037288469E+01
 MD| Temperature [K]                             368.641405           348.397548
 MD| ***************************************************************************

 Number of electrons:                                                       4096
 Number of occupied orbitals:                                               2048
 Number of molecular orbitals:                                              2048

 Number of orbital functions:                                              20480
 Number of independent orbital functions:                                  20480

 Extrapolation method: PS Nth order
 Extrapolation order:  3


 SCF WAVEFUNCTION OPTIMIZATION

  ----------------------------------- OT ---------------------------------------
  Minimizer      : DIIS                : direct inversion
                                         in the iterative subspace
                                         using   7 DIIS vectors
                                         safer DIIS on
  Preconditioner : FULL_KINETIC        : inversion of T + eS
  Precond_solver : DEFAULT
  stepsize       :    0.15000000                  energy_gap     :    0.20000000
  eps_taylor     :   0.10000E-15                  max_taylor     :             4
  ----------------------------------- OT ---------------------------------------

  Step     Update method      Time    Convergence         Total energy    Change
  ------------------------------------------------------------------------------
     1 OT DIIS     0.15E+00    4.0     0.00004551     -8808.6384770477 -8.81E+03
     2 OT DIIS     0.15E+00    1.3     0.00003729     -8808.6502438996 -1.18E-02
     3 OT DIIS     0.15E+00    1.3     0.00002023     -8808.6710752499 -2.08E-02
     4 OT DIIS     0.15E+00    1.3     0.00001308     -8808.6771447717 -6.07E-03
     5 OT DIIS     0.15E+00    1.3     0.00000755     -8808.6802140166 -3.07E-03

  *** SCF run converged in     5 steps ***


  Electronic density on regular grids:      -4096.0000050933       -0.0000050933
  Core density on regular grids:             4095.9999999989       -0.0000000011
  Total charge density on r-space grids:       -0.0000050945
  Total charge density g-space grids:          -0.0000050945

  Overlap energy of the core charge distribution:               0.00000622092330
  Self energy of the core charge distribution:             -22442.43995950839599
  Core Hamiltonian energy:                                   6517.03118157867175
  Hartree energy:                                            9223.86272582684433
  Exchange-correlation energy:                              -2107.13416813461390

  Total energy:                                             -8808.68021401657097

 ENERGY| Total FORCE_EVAL ( QS ) energy [a.u.]:            -8808.681147572355258

 MD| ***************************************************************************
 MD| Step number                                                               7
 MD| Time [fs]                                                          3.500000
 MD| Conserved quantity [hartree]                            -0.880616595727E+04
 MD| ---------------------------------------------------------------------------
 MD|                                          Instantaneous             Averages
 MD| CPU time per MD step [s]                     11.052554            26.759565
 MD| Energy drift per atom [K]          -0.824101024648E+02  -0.709025526496E+02
 MD| Potential energy [hartree]         -0.880868114757E+04  -0.880870282542E+04
 MD| Kinetic energy [hartree]            0.251519029973E+01   0.253677537255E+01
 MD| Temperature [K]                             344.943901           347.904169
 MD| ***************************************************************************

 Number of electrons:                                                       4096
 Number of occupied orbitals:                                               2048
 Number of molecular orbitals:                                              2048

 Number of orbital functions:                                              20480
 Number of independent orbital functions:                                  20480

 Extrapolation method: PS Nth order
 Extrapolation order:  3


 SCF WAVEFUNCTION OPTIMIZATION

  ----------------------------------- OT ---------------------------------------
  Minimizer      : DIIS                : direct inversion
                                         in the iterative subspace
                                         using   7 DIIS vectors
                                         safer DIIS on
  Preconditioner : FULL_KINETIC        : inversion of T + eS
  Precond_solver : DEFAULT
  stepsize       :    0.15000000                  energy_gap     :    0.20000000
  eps_taylor     :   0.10000E-15                  max_taylor     :             4
  ----------------------------------- OT ---------------------------------------

  Step     Update method      Time    Convergence         Total energy    Change
  ------------------------------------------------------------------------------
     1 OT DIIS     0.15E+00    4.0     0.00004639     -8808.4083529646 -8.81E+03
     2 OT DIIS     0.15E+00    1.3     0.00003771     -8808.4205213200 -1.22E-02
     3 OT DIIS     0.15E+00    1.3     0.00002094     -8808.4409407679 -2.04E-02
     4 OT DIIS     0.15E+00    1.3     0.00001360     -8808.4479497340 -7.01E-03
     5 OT DIIS     0.15E+00    1.3     0.00001073     -8808.4504245782 -2.47E-03
     6 OT DIIS     0.15E+00    1.3     0.00000737     -8808.4530065640 -2.58E-03

  *** SCF run converged in     6 steps ***


  Electronic density on regular grids:      -4096.0000038468       -0.0000038468
  Core density on regular grids:             4096.0000000008        0.0000000008
  Total charge density on r-space grids:       -0.0000038459
  Total charge density g-space grids:          -0.0000038459

  Overlap energy of the core charge distribution:               0.00000436187241
  Self energy of the core charge distribution:             -22442.43995950839599
  Core Hamiltonian energy:                                   6506.06509186003314
  Hartree energy:                                            9232.01158719204614
  Exchange-correlation energy:                              -2104.08973046960318

  Total energy:                                             -8808.45300656404834

 ENERGY| Total FORCE_EVAL ( QS ) energy [a.u.]:            -8808.454571207217668

 MD| ***************************************************************************
 MD| Step number                                                               8
 MD| Time [fs]                                                          4.000000
 MD| Conserved quantity [hartree]                            -0.880616115037E+04
 MD| ---------------------------------------------------------------------------
 MD|                                          Instantaneous             Averages
 MD| CPU time per MD step [s]                     12.302914            24.952484
 MD| Energy drift per atom [K]          -0.814218871899E+02  -0.722174694671E+02
 MD| Potential energy [hartree]         -0.880845457121E+04  -0.880867179364E+04
 MD| Kinetic energy [hartree]            0.229342083936E+01   0.250635605591E+01
 MD| Temperature [K]                             314.529493           343.732335
 MD| ***************************************************************************

 Number of electrons:                                                       4096
 Number of occupied orbitals:                                               2048
 Number of molecular orbitals:                                              2048

 Number of orbital functions:                                              20480
 Number of independent orbital functions:                                  20480

 Extrapolation method: PS Nth order
 Extrapolation order:  3


 SCF WAVEFUNCTION OPTIMIZATION

  ----------------------------------- OT ---------------------------------------
  Minimizer      : DIIS                : direct inversion
                                         in the iterative subspace
                                         using   7 DIIS vectors
                                         safer DIIS on
  Preconditioner : FULL_KINETIC        : inversion of T + eS
  Precond_solver : DEFAULT
  stepsize       :    0.15000000                  energy_gap     :    0.20000000
  eps_taylor     :   0.10000E-15                  max_taylor     :             4
  ----------------------------------- OT ---------------------------------------

  Step     Update method      Time    Convergence         Total energy    Change
  ------------------------------------------------------------------------------
     1 OT DIIS     0.15E+00    4.0     0.00004050     -8808.2146975531 -8.81E+03
     2 OT DIIS     0.15E+00    1.3     0.00003407     -8808.2241590673 -9.46E-03
     3 OT DIIS     0.15E+00    1.3     0.00001718     -8808.2450179658 -2.09E-02
     4 OT DIIS     0.15E+00    1.3     0.00001245     -8808.2495172522 -4.50E-03
     5 OT DIIS     0.15E+00    1.3     0.00000891     -8808.2522161277 -2.70E-03

  *** SCF run converged in     5 steps ***


  Electronic density on regular grids:      -4096.0000022243       -0.0000022243
  Core density on regular grids:             4096.0000000016        0.0000000016
  Total charge density on r-space grids:       -0.0000022227
  Total charge density g-space grids:          -0.0000022227

  Overlap energy of the core charge distribution:               0.00000353692306
  Self energy of the core charge distribution:             -22442.43995950839599
  Core Hamiltonian energy:                                   6498.75942703210421
  Hartree energy:                                            9237.49748383109181
  Exchange-correlation energy:                              -2102.06917101944327

  Total energy:                                             -8808.25221612771929

 ENERGY| Total FORCE_EVAL ( QS ) energy [a.u.]:            -8808.253873597996062

 MD| ***************************************************************************
 MD| Step number                                                               9
 MD| Time [fs]                                                          4.500000
 MD| Conserved quantity [hartree]                            -0.880615635527E+04
 MD| ---------------------------------------------------------------------------
 MD|                                          Instantaneous             Averages
 MD| CPU time per MD step [s]                     11.022631            23.404723
 MD| Energy drift per atom [K]          -0.804360995763E+02  -0.731306505904E+02
 MD| Potential energy [hartree]         -0.880825387360E+04  -0.880862535808E+04
 MD| Kinetic energy [hartree]            0.209751832621E+01   0.246092964150E+01
 MD| Temperature [K]                             287.662589           337.502363
 MD| ***************************************************************************

 Number of electrons:                                                       4096
 Number of occupied orbitals:                                               2048
 Number of molecular orbitals:                                              2048

 Number of orbital functions:                                              20480
 Number of independent orbital functions:                                  20480

 Extrapolation method: PS Nth order
 Extrapolation order:  3


 SCF WAVEFUNCTION OPTIMIZATION

  ----------------------------------- OT ---------------------------------------
  Minimizer      : DIIS                : direct inversion
                                         in the iterative subspace
                                         using   7 DIIS vectors
                                         safer DIIS on
  Preconditioner : FULL_KINETIC        : inversion of T + eS
  Precond_solver : DEFAULT
  stepsize       :    0.15000000                  energy_gap     :    0.20000000
  eps_taylor     :   0.10000E-15                  max_taylor     :             4
  ----------------------------------- OT ---------------------------------------

  Step     Update method      Time    Convergence         Total energy    Change
  ------------------------------------------------------------------------------
     1 OT DIIS     0.15E+00    4.0     0.00004012     -8808.1037290976 -8.81E+03
     2 OT DIIS     0.15E+00    1.3     0.00003342     -8808.1129260368 -9.20E-03
     3 OT DIIS     0.15E+00    1.3     0.00002048     -8808.1296917609 -1.68E-02
     4 OT DIIS     0.15E+00    1.3     0.00001263     -8808.1379699900 -8.28E-03
     5 OT DIIS     0.15E+00    1.3     0.00001017     -8808.1402112841 -2.24E-03
     6 OT DIIS     0.15E+00    1.3     0.00000715     -8808.1425469298 -2.34E-03

  *** SCF run converged in     6 steps ***


  Electronic density on regular grids:      -4096.0000006753       -0.0000006753
  Core density on regular grids:             4096.0000000007        0.0000000007
  Total charge density on r-space grids:       -0.0000006745
  Total charge density g-space grids:          -0.0000006745

  Overlap energy of the core charge distribution:               0.00000340787718
  Self energy of the core charge distribution:             -22442.43995950839599
  Core Hamiltonian energy:                                   6495.52246757354078
  Hartree energy:                                            9239.94935620306751
  Exchange-correlation energy:                              -2101.17441460584769

  Total energy:                                             -8808.14254692975919

 ENERGY| Total FORCE_EVAL ( QS ) energy [a.u.]:            -8808.143947986165585

 MD| ***************************************************************************
 MD| Step number                                                              10
 MD| Time [fs]                                                          5.000000
 MD| Conserved quantity [hartree]                            -0.880615520784E+04
 MD| ---------------------------------------------------------------------------
 MD|                                          Instantaneous             Averages
 MD| CPU time per MD step [s]                     12.277227            22.291973
 MD| Energy drift per atom [K]          -0.802002069035E+02  -0.738376062217E+02
 MD| Potential energy [hartree]         -0.880814394799E+04  -0.880857721707E+04
 MD| Kinetic energy [hartree]            0.198874015022E+01   0.241371069237E+01
 MD| Temperature [K]                             272.744287           331.026555
 MD| ***************************************************************************

 -------------------------------------------------------------------------------
 -                                                                             -
 -                                DBCSR STATISTICS                             -
 -                                                                             -
 -------------------------------------------------------------------------------
 COUNTER                                    TOTAL       BLAS       SMM       ACC
 flops     9 x    32 x    32          13287555072     100.0%      0.0%      0.0%
 flops    22 x    32 x    32          16240345088     100.0%      0.0%      0.0%
 flops    32 x   128 x   128         678067961856     100.0%      0.0%      0.0%
 flops    96 x   128 x   128        2034203885568     100.0%      0.0%      0.0%
 flops    32 x   128 x  1280        3648037847040     100.0%      0.0%      0.0%
 flops     9 x     9 x   128        5648350040064     100.0%      0.0%      0.0%
 flops     9 x    22 x   128        7855827369984     100.0%      0.0%      0.0%
 flops    22 x     9 x   128        7866447519744     100.0%      0.0%      0.0%
 flops    96 x   128 x  1280       10944113541120     100.0%      0.0%      0.0%
 flops    22 x    22 x   128       11004752822272     100.0%      0.0%      0.0%
 flops    64 x   128 x   128       11753178005504     100.0%      0.0%      0.0%
 flops   569 x   128 x   128       21307198537728     100.0%      0.0%      0.0%
 flops   591 x   128 x   128       22131026952192     100.0%      0.0%      0.0%
 flops     9 x    32 x     9       23722505551872     100.0%      0.0%      0.0%
 flops   689 x   128 x   128       25800808071168     100.0%      0.0%      0.0%
 flops   711 x   128 x   128       26624636485632     100.0%      0.0%      0.0%
 flops     9 x    32 x    22       33153656684544     100.0%      0.0%      0.0%
 flops    22 x    32 x     9       33153656684544     100.0%      0.0%      0.0%
 flops    22 x    32 x    22       46115724689408     100.0%      0.0%      0.0%
 flops   569 x   128 x  1280       48494878392320     100.0%      0.0%      0.0%
 flops   591 x   128 x  1280       50369900052480     100.0%      0.0%      0.0%
 flops   689 x   128 x  1280       58722269265920     100.0%      0.0%      0.0%
 flops   711 x   128 x  1280       60597290926080     100.0%      0.0%      0.0%
 flops    64 x   128 x  1280       63232656015360     100.0%      0.0%      0.0%
 flops inhomo. stacks                           0       0.0%      0.0%      0.0%
 flops total                       574.888715E+12     100.0%      0.0%      0.0%
 flops max/rank                      2.267457E+12     100.0%      0.0%      0.0%
 matmuls inhomo. stacks                         0       0.0%      0.0%      0.0%
 matmuls total                        11986131072     100.0%      0.0%      0.0%
 number of processed stacks              37164752     100.0%      0.0%      0.0%
 average stack size                                   322.5       0.0       0.0
 marketing flops                     1.147134E+15
 -------------------------------------------------------------------------------
 # multiplications                           2431
 max memory usage/rank             429.314048E+06
 # max total images/rank                        1
 # max 3D layers                                1
 # MPI messages exchanged                18670080
 MPI messages size (bytes):
  total size                        22.426243E+12
  min size                           0.000000E+00
  max size                          13.107200E+06
  average size                       1.201186E+06
 MPI breakdown and total messages size (bytes):
             size <=      128              124080                        0
       128 < size <=     8192                   0                        0
      8192 < size <=    32768                2640                 86507520
     32768 < size <=   131072             8609280            1128435548160
    131072 < size <=  4194304             9446400           14905573424160
   4194304 < size <= 16777216              487680            6392119296000
  16777216 < size                               0                        0
 -------------------------------------------------------------------------------
 -                                                                             -
 -                      DBCSR MESSAGE PASSING PERFORMANCE                      -
 -                                                                             -
 -------------------------------------------------------------------------------
 ROUTINE             CALLS      AVE VOLUME [Bytes]
 MP_Bcast               25                     12.
 MP_Allreduce        12979                     67.
 MP_Alltoall          9270                 252484.
 MP_ISend           155540                 565162.
 MP_IRecv           155540                 564913.
 -------------------------------------------------------------------------------

 -------------------------------------------------------------------------------
 -                                                                             -
 -                                GRID STATISTICS                              -
 -                                                                             -
 -------------------------------------------------------------------------------
 LP    KERNEL             BACKEND                              COUNT     PERCENT
 1     collocate ortho    REF                              135745301      21.07%
 1     integrate ortho    REF                              130493488      20.25%
 2     integrate ortho    REF                               88995618      13.81%
 2     collocate ortho    REF                               84560451      13.12%
 0     collocate ortho    REF                               75171698      11.67%
 0     integrate ortho    REF                               68664071      10.66%
 3     integrate ortho    REF                               26282166       4.08%
 3     collocate ortho    REF                               20755016       3.22%
 0     collocate general  REF                                4325376       0.67%
 1     integrate general  REF                                4325376       0.67%
 4     integrate ortho    REF                                3293394       0.51%
 4     collocate ortho    REF                                1638196       0.25%
 5     integrate ortho    REF                                 141925       0.02%
 -------------------------------------------------------------------------------

 MEMORY| Estimated peak process memory [MiB]                                 410

 -------------------------------------------------------------------------------
 -                                                                             -
 -                         MESSAGE PASSING PERFORMANCE                         -
 -                                                                             -
 -------------------------------------------------------------------------------

 ROUTINE             CALLS      AVE VOLUME [Bytes]
 MP_Group                4
 MP_Bcast             4017                  57863.
 MP_Allreduce        11015                   1322.
 MP_Sync               136
 MP_Alltoall          2465                1828021.
 MP_ISendRecv       129540                  16416.
 MP_Wait            156060
 MP_comm_split          66
 MP_ISend            23892                  69215.
 MP_IRecv            23892                  69215.
 -------------------------------------------------------------------------------


 -------------------------------------------------------------------------------
 -                                                                             -
 -                           R E F E R E N C E S                               -
 -                                                                             -
 -------------------------------------------------------------------------------
 
 CP2K version 8.2, the CP2K developers group (2021).
 CP2K is freely available from https://www.cp2k.org/ .

 Kuehne,Thomas D.; Iannuzzi,Marcella; Del Ben,Mauro;
 Rybkin,Vladimir V.; Seewald,Patrick; Stein,Frederick; Laino,Teodoro;
 Khaliullin,Rustam Z.; Schuett,Ole; Schiffmann,Florian; Golze,Dorothea;
 Wilhelm,Jan; Chulkov,Sergey; Bani-Hashemian,Mohammad Hossein;
 Weber,Valery; Borstnik,Urban; Taillefumier,Mathieu;
 Jakobovits,Alice Shoshana; Lazzaro,Alfio; Pabst,Hans; Mueller,Tiziano;
 Schade,Robert; Guidon,Manuel; Andermatt,Samuel; Holmberg,Nico;
 Schenter,Gregory K.; Hehn,Anna; Bussy,Augustin; Belleflamme,Fabian;
 Tabacchi,Gloria; Gloess,Andreas; Lass,Michael; Bethune,Iain;
 Mundy,Christopher J.; Plessl,Christian; Watkins,Matt;
 VandeVondele,Joost; Krack,Matthias; Hutter,Juerg. 
 The Journal of Chemical Physics, 152 (19), (2020). 
 CP2K: An electronic structure and molecular dynamics software package -
 Quickstep: Efficient and accurate electronic structure calculations.
 https://doi.org/10.1063/5.0007045

 Schuett, Ole; Messmer, Peter; Hutter, Juerg; VandeVondele, Joost. 
 Electronic Structure Calculations on Graphics Processing Units, John
 Wiley & Sons, Ltd, 173-190 (2016). 
 GPU-Accelerated Sparse Matrix-Matrix Multiplication for
 Linear Scaling Density Functional Theory.
 https://doi.org/10.1002/9781118670712.ch8

 Borstnik, U; VandeVondele, J; Weber, V; Hutter, J. 
 PARALLEL COMPUTING, 40 (5-6), 47-58 (2014). 
 Sparse matrix multiplication: The distributed block-compressed sparse
 row library.
 https://doi.org/10.1016/j.parco.2014.03.012

 Hutter, J; Iannuzzi, M; Schiffmann, F; VandeVondele, J. 
 WIREs Comput Mol Sci., 4 (1), 15-25 (2014). 
 CP2K: atomistic simulations of condensed matter systems.
 https://doi.org/10.1002/wcms.1159

 Marek, A; Blum, V; Johanni, R; Havu, V; Lang, B; Auckenthaler, T;
 Heinecke, A; Bungartz, H; Lederer, H. 
 Journal of Physics: Condensed Matter, 26 (21), (2014). 
 The ELPA library: scalable parallel eigenvalue solutions for
 electronic structure
 theory and computational science.
 https://doi.org/10.1088/0953-8984/26/21/213201

 Krack, M. 
 THEORETICAL CHEMISTRY ACCOUNTS, 114 (1-3), 145-152 (2005). 
 Pseudopotentials for H to Kr optimized for gradient-corrected
 exchange-correlation functionals.
 https://doi.org/10.1007/s00214-005-0655-y

 VandeVondele, J; Krack, M; Mohamed, F; Parrinello, M; Chassaing, T;
 Hutter, J. COMPUTER PHYSICS COMMUNICATIONS, 167 (2), 103-128 (2005). 
 QUICKSTEP: Fast and accurate density functional calculations using a
 mixed Gaussian and plane waves approach.
 https://doi.org/10.1016/j.cpc.2004.12.014

 Frigo, M; Johnson, SG. 
 PROCEEDINGS OF THE IEEE, 93 (2), 216-231 (2005). 
 The design and implementation of FFTW3.
 https://doi.org/10.1109/JPROC.2004.840301

 VandeVondele, J; Hutter, J. 
 JOURNAL OF CHEMICAL PHYSICS, 118 (10), 4365-4369 (2003). 
 An efficient orbital transformation method for electronic structure
 calculations.
 https://doi.org/10.1063/1.1543154

 Hartwigsen, C; Goedecker, S; Hutter, J. 
 PHYSICAL REVIEW B, 58 (7), 3641-3662 (1998). 
 Relativistic separable dual-space Gaussian pseudopotentials from H to Rn.
 https://doi.org/10.1103/PhysRevB.58.3641

 Lippert, G; Hutter, J; Parrinello, M. 
 MOLECULAR PHYSICS, 92 (3), 477-487 (1997). 
 A hybrid Gaussian and plane wave density functional scheme.
 https://doi.org/10.1080/002689797170220

 Goedecker, S; Teter, M; Hutter, J. 
 PHYSICAL REVIEW B, 54 (3), 1703-1710 (1996). 
 Separable dual-space Gaussian pseudopotentials.
 https://doi.org/10.1103/PhysRevB.54.1703


 -------------------------------------------------------------------------------
 -                                                                             -
 -                                T I M I N G                                  -
 -                                                                             -
 -------------------------------------------------------------------------------
 SUBROUTINE                       CALLS  ASD         SELF TIME        TOTAL TIME
                                MAXIMUM       AVERAGE  MAXIMUM  AVERAGE  MAXIMUM
 CP2K                                 1  1.0    0.014    0.015  223.080  223.081
 qs_mol_dyn_low                       1  2.0    0.004    0.005  222.932  222.958
 qs_forces                           11  3.9    0.004    0.005  222.725  222.725
 qs_energies                         11  4.9    0.001    0.002  218.655  218.688
 scf_env_do_scf                      11  5.9    0.001    0.001  197.424  197.426
 scf_env_do_scf_inner_loop          116  6.6    0.003    0.010  165.520  165.522
 velocity_verlet                     10  3.0    0.002    0.002  133.670  133.671
 dbcsr_multiply_generic            2431 12.5    0.172    0.184  130.289  132.091
 qs_scf_new_mos                     116  7.6    0.001    0.002  129.414  129.855
 qs_scf_loop_do_ot                  116  8.6    0.001    0.001  129.413  129.854
 ot_scf_mini                        116  9.6    0.004    0.005  121.193  121.689
 multiply_cannon                   2431 13.5    0.248    0.277  107.973  111.607
 multiply_cannon_loop              2431 14.5    0.312    0.368  105.268  109.084
 multiply_cannon_multrec          38896 15.5   76.737   85.378   76.752   85.393
 ot_mini                            116 10.6    0.002    0.003   73.730   74.206
 qs_ot_get_derivative               116 11.6    0.001    0.002   41.571   42.033
 mp_waitall_1                    482232 15.9   26.194   37.961   26.194   37.961
 apply_preconditioner_dbcsr         127 12.6    0.000    0.001   32.239   32.942
 apply_single                       127 13.6    0.001    0.001   32.239   32.942
 ot_diis_step                       116 11.6    0.008    0.010   31.842   31.843
 init_scf_loop                       11  6.9    0.000    0.001   31.796   31.799
 rebuild_ks_matrix                  127  8.3    0.001    0.002   27.679   28.265
 qs_ks_build_kohn_sham_matrix       127  9.3    0.019    0.021   27.678   28.264
 prepare_preconditioner              11  7.9    0.000    0.000   27.858   27.909
 make_preconditioner                 11  8.9    0.000    0.000   27.858   27.908
 qs_ot_get_p                        127 10.4    0.001    0.002   27.014   27.574
 make_full_inverse_cholesky          11  9.9    0.001    0.001   26.973   27.111
 qs_ks_update_qs_env                127  7.6    0.002    0.004   25.056   25.592
 multiply_cannon_metrocomm1       38896 15.5    0.105    0.121   14.093   24.268
 mp_irecv_dv                      97746 16.0    9.650   19.678    9.650   19.678
 qs_ot_p2m_diag                      66 11.2    0.061    0.071   16.819   16.846
 cp_dbcsr_syevd                      66 12.2    0.008    0.009   15.826   15.833
 cp_fm_cholesky_invert               11 10.9   15.733   15.738   15.733   15.738
 cp_fm_diag_elpa                     66 13.2    0.000    0.001   15.712   15.716
 cp_fm_redistribute_end              66 14.2   13.407   15.618   13.446   15.623
 qs_ot_get_derivative_diag           62 12.2    0.002    0.002   15.237   15.538
 make_m2s                          4862 13.5    0.101    0.121   14.941   15.370
 cp_fm_diag_elpa_base                66 14.2    2.129   15.199    2.154   15.328
 qs_rho_update_rho                  127  7.7    0.001    0.001   14.342   14.545
 calculate_rho_elec                 127  8.7    0.042    0.044   14.341   14.545
 make_images                       4862 14.5    0.656    0.986   12.208   12.934
 pw_transfer                       1535 11.6    0.122    0.145   12.189   12.445
 multiply_cannon_metrocomm2       36465 15.5    0.120    0.140    4.198   12.317
 fft_wrap_pw1pw2                   1281 12.7    0.009    0.011   12.010   12.267
 fft3d_ps                          1281 14.7    1.596    2.212   11.421   11.703
 fft_wrap_pw1pw2_140                519 13.2    0.220    0.231   11.143   11.444
 multiply_cannon_metrocomm4       36465 15.5    0.105    0.118    5.997   11.262
 sum_up_and_integrate               127 10.3    0.027    0.033   10.813   10.834
 integrate_v_rspace                 127 11.3    0.004    0.005   10.786   10.806
 init_scf_run                        11  5.9    0.000    0.001   10.600   10.601
 scf_env_initial_rho_setup           11  6.9    0.000    0.001   10.600   10.601
 qs_ot_get_derivative_taylor         54 13.0    0.002    0.002   10.169   10.366
 cp_fm_cholesky_decompose            22 10.9    9.898    9.937    9.898    9.937
 wfi_extrapolate                     11  7.9    0.002    0.002    9.599    9.599
 multiply_cannon_metrocomm3       38896 15.5    0.086    0.094    3.916    9.460
 calculate_dm_sparse                127  9.5    0.001    0.001    9.060    9.349
 mp_alltoall_z22v                  1281 16.7    9.070    9.126    9.070    9.126
 make_images_data                  4862 15.5    0.065    0.086    7.777    8.696
 hybrid_alltoall_any               5031 16.4    0.230    3.078    7.482    8.672
 qs_energies_init_hamiltonians       11  5.9    0.000    0.001    8.562    8.563
 yz_to_x                            265 15.9    0.073    0.089    8.228    8.265
 qs_env_update_s_mstruct             11  6.9    0.000    0.000    8.119    8.153
 grid_collocate_task_list           127  9.7    7.434    8.134    7.434    8.134
 calculate_rho_core                  11  7.9    0.080    0.084    7.827    7.869
 mp_sum_l                         11831 13.4    5.869    7.785    5.869    7.785
 rs_pw_transfer                    1038 11.9    0.015    0.019    6.115    7.153
 qs_ot_get_orbitals                 116 10.6    0.001    0.001    6.386    6.509
 density_rs2pw                      127  9.7    0.005    0.007    5.400    6.389
 grid_integrate_task_list           127 12.3    5.528    5.889    5.528    5.889
 cp_dbcsr_sm_fm_multiply             37  9.5    0.002    0.003    5.366    5.372
 cp_dbcsr_sm_fm_multiply_core        37 10.5    0.000    0.000    4.298    4.500
 -------------------------------------------------------------------------------

 The number of warnings for this run is : 1
 
 -------------------------------------------------------------------------------
  **** **** ******  **  PROGRAM ENDED AT                 2022-01-17 17:06:46.611
 ***** ** ***  *** **   PROGRAM RAN ON                                 nid001698
 **    ****   ******    PROGRAM RAN BY                                    hjudge
 ***** **    ** ** **   PROGRAM PROCESS ID                                120887
  **** **  *******  **  PROGRAM STOPPED IN /mnt/lustre/a2fs-work2/work/z19/z19/h
                                           judge/CUG/archer2/CPU/CP2K/H2O-512/4N
                                           ODES/128CPN/2THREADS
