 DBCSR| CPU Multiplication driver                                           BLAS
 DBCSR| Multrec recursion limit                                              512
 DBCSR| Multiplication stack size                                           1000
 DBCSR| Maximum elements for images                                    UNLIMITED
 DBCSR| Multiplicative factor virtual images                                   1
 DBCSR| Use multiplication densification                                       T
 DBCSR| Multiplication size stacks                                             3
 DBCSR| Use memory pool for CPU allocation                                     F
 DBCSR| Number of 3D layers                                               SINGLE
 DBCSR| Use MPI memory allocation                                              F
 DBCSR| Use RMA algorithm                                                      F
 DBCSR| Use Communication thread                                               T
 DBCSR| Communication thread load                                             83
 DBCSR| MPI: My node id                                                        0
 DBCSR| MPI: Number of nodes                                                 256
 DBCSR| OMP: Current number of threads                                         2
 DBCSR| OMP: Max number of threads                                             2
 DBCSR| Split modifier for TAS multiplication algorithm                  1.0E+00


  **** **** ******  **  PROGRAM STARTED AT               2022-01-17 16:59:11.391
 ***** ** ***  *** **   PROGRAM STARTED ON                             nid001698
 **    ****   ******    PROGRAM STARTED BY                                hjudge
 ***** **    ** ** **   PROGRAM PROCESS ID                                106648
  **** **  *******  **  PROGRAM STARTED IN /mnt/lustre/a2fs-work2/work/z19/z19/h
                                           judge/CUG/archer2/CPU/CP2K/H2O-512/4N
                                           ODES/128CPN/2THREADS

 CP2K| version string:                                          CP2K version 8.2
 CP2K| source code revision number:                                  git:310b7ab
 CP2K| cp2kflags: omp libint fftw3 libxc elpa parallel mpi3 scalapack plumed2   
 CP2K| is freely available from                            https://www.cp2k.org/
 CP2K| Program compiled at                          Thu Dec  2 10:30:45 GMT 2021
 CP2K| Program compiled on                                                  ln02
 CP2K| Program compiled for                                              ARCHER2
 CP2K| Data directory path         /work/y07/shared/apps/core/cp2k/cp2k-8.2/data
 CP2K| Input file name                                               H2O-512.inp

 GLOBAL| Force Environment number                                              1
 GLOBAL| Basis set file name                                      GTH_BASIS_SETS
 GLOBAL| Potential file name                                           POTENTIAL
 GLOBAL| MM Potential file name                                     MM_POTENTIAL
 GLOBAL| Coordinate file name                                      __STD_INPUT__
 GLOBAL| Method name                                                        CP2K
 GLOBAL| Project name                                                    H2O-512
 GLOBAL| Run type                                                             MD
 GLOBAL| FFT library                                                       FFTW3
 GLOBAL| Diagonalization library                                            ELPA
 GLOBAL| Minimum number of eigenvectors for ELPA usage                        16
 GLOBAL| Orthonormality check for eigenvectors                          DISABLED
 GLOBAL| Matrix multiplication library                                    SCALAP
 GLOBAL| All-to-all communication in single precision                          F
 GLOBAL| FFTs using library dependent lengths                                  F
 GLOBAL| Grid backend                                                       AUTO
 GLOBAL| Global print level                                                  LOW
 GLOBAL| MPI I/O enabled                                                       T
 GLOBAL| Total number of message passing processes                           256
 GLOBAL| Number of threads for this process                                    2
 GLOBAL| This output is from process                                           0
 GLOBAL| CPU model name                          AMD EPYC 7742 64-Core Processor
 GLOBAL| CPUID                                                              1002

 MEMORY| system memory details [Kb]
 MEMORY|                        rank 0           min           max       average
 MEMORY| MemTotal            263528088     263528088     263528088     263528088
 MEMORY| MemFree             245302140     245302140     246140940     245869448
 MEMORY| Buffers                 31716         16888         31716         20964
 MEMORY| Cached                1442812        689800       1442812        974326
 MEMORY| Slab                  1635916       1574144       1664244       1617929
 MEMORY| SReclaimable           114432         94508        114432        105559
 MEMORY| MemLikelyFree       246891100     246891100     247067708     246970297


 GENERATE|  Preliminary Number of Bonds generated:                             0
 GENERATE|  Achieved consistency in connectivity generation.

 *******************************************************************************
 *******************************************************************************
 **                                                                           **
 **     #####                         ##              ##                      **
 **    ##   ##            ##          ##              ##                      **
 **   ##     ##                       ##            ######                    **
 **   ##     ##  ##   ##  ##   #####  ##  ##   ####   ##    #####    #####    **
 **   ##     ##  ##   ##  ##  ##      ## ##   ##      ##   ##   ##  ##   ##   **
 **   ##  ## ##  ##   ##  ##  ##      ####     ###    ##   ######   ######    **
 **    ##  ###   ##   ##  ##  ##      ## ##      ##   ##   ##       ##        **
 **     #######   #####   ##   #####  ##  ##  ####    ##    #####   ##        **
 **           ##                                                    ##        **
 **                                                                           **
 **                                                ... make the atoms dance   **
 **                                                                           **
 **            Copyright (C) by CP2K developers group (2000-2021)             **
 **                      J. Chem. Phys. 152, 194103 (2020)                    **
 **                                                                           **
 *******************************************************************************


 TOTAL NUMBERS AND MAXIMUM NUMBERS

  Total number of            - Atomic kinds:                                   2
                             - Atoms:                                       1536
                             - Shell sets:                                  3072
                             - Shells:                                      9216
                             - Primitive Cartesian functions:              10752
                             - Cartesian basis functions:                  21504
                             - Spherical basis functions:                  20480

  Maximum angular momentum of- Orbital basis functions:                        2
                             - Local part of the GTH pseudopotential:          2
                             - Non-local part of the GTH pseudopotential:      0


 SCF PARAMETERS         Density guess:                                    ATOMIC
                        --------------------------------------------------------
                        max_scf:                                              50
                        max_scf_history:                                       0
                        max_diis:                                              4
                        --------------------------------------------------------
                        eps_scf:                                        1.00E-05
                        eps_scf_history:                                0.00E+00
                        eps_diis:                                       1.00E-01
                        eps_eigval:                                     1.00E-05
                        --------------------------------------------------------
                        level_shift [a.u.]:                                 0.00
                        --------------------------------------------------------
                        No outer SCF

 MD_PAR| Molecular dynamics protocol (MD input parameters)
 MD_PAR| Ensemble type                                                       NVE
 MD_PAR| Number of time steps                                                 10
 MD_PAR| Time step [fs]                                                 0.500000
 MD_PAR| Temperature [K]                                              300.000000
 MD_PAR| Temperature tolerance [K]                                      0.000000
 MD_PAR| Print MD information every                                    1 step(s)
 MD_PAR| File type   Print frequency [steps]                          File names
 MD_PAR| Coordinates          1                                H2O-512-pos-1.xyz
 MD_PAR| Velocities           1                                H2O-512-vel-1.xyz
 MD_PAR| Energies             1                                   H2O-512-1.ener
 MD_PAR| Dump                20                                H2O-512-1.restart

 ROT| Rotational analysis information
 ROT| Principal axes and moments of inertia [a.u.]
 ROT|                           1                   2                   3
 ROT| Eigenvalues      6.12011925703E+09   6.17734003456E+09   6.32378668800E+09
 ROT|      x              0.229702356692      0.883899672739      0.407379670409
 ROT|      y              0.711719446246      0.132949289019     -0.689768016354
 ROT|      z              0.663846561462     -0.448381372362      0.598549820611
 ROT| Number of rotovibrational vectors                                        6

 DOF| Calculation of degrees of freedom
 DOF| Number of atoms                                                       1536
 DOF| Number of intramolecular constraints                                     0
 DOF| Number of intermolecular constraints                                     0
 DOF| Invariants (translations + rotations)                                    3
 DOF| Degrees of freedom                                                    4605

 DOF| Restraints information
 DOF| Number of intramolecular restraints                                      0
 DOF| Number of intermolecular restraints                                      0

 MD_VEL| Velocities initialization
 MD_VEL| Initial temperature [K]                                      300.000000
 MD_VEL| COM velocity             0.0000000000    -0.0000000000     0.0000000000

 Number of electrons:                                                       4096
 Number of occupied orbitals:                                               2048
 Number of molecular orbitals:                                              2048

 Number of orbital functions:                                              20480
 Number of independent orbital functions:                                  20480

 Extrapolation method: initial_guess


 SCF WAVEFUNCTION OPTIMIZATION

  ----------------------------------- OT ---------------------------------------
  Minimizer      : DIIS                : direct inversion
                                         in the iterative subspace
                                         using   7 DIIS vectors
                                         safer DIIS on
  Preconditioner : FULL_KINETIC        : inversion of T + eS
  Precond_solver : DEFAULT
  stepsize       :    0.15000000                  energy_gap     :    0.20000000
  eps_taylor     :   0.10000E-15                  max_taylor     :             4
  ----------------------------------- OT ---------------------------------------

  Step     Update method      Time    Convergence         Total energy    Change
  ------------------------------------------------------------------------------
     1 OT DIIS     0.15E+00    4.4     0.00467324     -8480.4728425690 -8.48E+03
     2 OT DIIS     0.15E+00    1.5     0.00318266     -8587.4488310143 -1.07E+02
     3 OT DIIS     0.15E+00    1.5     0.00347210     -8644.7931966768 -5.73E+01
     4 OT DIIS     0.15E+00    1.6     0.00204380     -8678.2157923836 -3.34E+01
     5 OT DIIS     0.15E+00    1.5     0.00148292     -8717.4624183880 -3.92E+01
     6 OT DIIS     0.15E+00    1.6     0.00119954     -8738.7795043572 -2.13E+01
     7 OT DIIS     0.15E+00    1.5     0.00099038     -8755.0185947301 -1.62E+01
     8 OT DIIS     0.15E+00    1.5     0.00079894     -8767.5347825454 -1.25E+01
     9 OT DIIS     0.15E+00    1.5     0.00061581     -8780.1862563834 -1.27E+01
    10 OT DIIS     0.15E+00    1.6     0.00048147     -8788.6147471043 -8.43E+00
    11 OT DIIS     0.15E+00    1.5     0.00038278     -8794.1215228889 -5.51E+00
    12 OT DIIS     0.15E+00    1.5     0.00031960     -8797.5363589594 -3.41E+00
    13 OT DIIS     0.15E+00    1.5     0.00026435     -8799.9344030908 -2.40E+00
    14 OT DIIS     0.15E+00    1.5     0.00023004     -8801.7089305035 -1.77E+00
    15 OT DIIS     0.15E+00    1.5     0.00019592     -8803.0697888564 -1.36E+00
    16 OT DIIS     0.15E+00    1.6     0.00016642     -8804.2000843411 -1.13E+00
    17 OT DIIS     0.15E+00    1.6     0.00014164     -8805.0506655806 -8.51E-01
    18 OT DIIS     0.15E+00    1.5     0.00012638     -8805.6725421207 -6.22E-01
    19 OT DIIS     0.15E+00    1.5     0.00010717     -8806.2171485645 -5.45E-01
    20 OT DIIS     0.15E+00    1.5     0.00009868     -8806.5290018963 -3.12E-01
    21 OT DIIS     0.15E+00    1.5     0.00008484     -8806.8772741195 -3.48E-01
    22 OT DIIS     0.15E+00    1.5     0.00007717     -8807.0943334427 -2.17E-01
    23 OT DIIS     0.15E+00    1.5     0.00006815     -8807.2974129499 -2.03E-01
    24 OT DIIS     0.15E+00    1.6     0.00006019     -8807.4529078233 -1.55E-01
    25 OT DIIS     0.15E+00    1.5     0.00005010     -8807.5989834234 -1.46E-01
    26 OT DIIS     0.15E+00    1.5     0.00004000     -8807.6989662228 -1.00E-01
    27 OT DIIS     0.15E+00    1.5     0.00003462     -8807.7827122402 -8.37E-02
    28 OT DIIS     0.15E+00    1.5     0.00003071     -8807.7824932500  2.19E-04
    29 OT DIIS     0.15E+00    1.5     0.00002690     -8807.8200993195 -3.76E-02
    30 OT DIIS     0.15E+00    1.5     0.00002500     -8807.8399634016 -1.99E-02
    31 OT DIIS     0.15E+00    1.5     0.00002395     -8807.8566460922 -1.67E-02
    32 OT DIIS     0.15E+00    1.5     0.00002328     -8807.8682689643 -1.16E-02
    33 OT DIIS     0.15E+00    1.5     0.00002304     -8807.8827275965 -1.45E-02
    34 OT DIIS     0.15E+00    1.6     0.00002300     -8807.8854890296 -2.76E-03
    35 OT SD       0.15E+00    1.5     0.00002301     -8807.8907467596 -5.26E-03
    36 OT SD       0.15E+00    1.5     0.00002308     -8807.8940817096 -3.33E-03
    37 OT SD       0.15E+00    1.5     0.00002318     -8807.8974407043 -3.36E-03
    38 OT SD       0.15E+00    1.5     0.00002329     -8807.9008284718 -3.39E-03
    39 OT SD       0.15E+00    1.5     0.00002341     -8807.9042491083 -3.42E-03
    40 OT SD       0.15E+00    1.5     0.00002354     -8807.9077063659 -3.46E-03
    41 OT SD       0.15E+00    1.5     0.00002369     -8807.9112037365 -3.50E-03
    42 OT SD       0.15E+00    1.5     0.00002384     -8807.9147444866 -3.54E-03
    43 OT SD       0.15E+00    1.5     0.00002400     -8807.9183316715 -3.59E-03
    44 OT SD       0.15E+00    1.5     0.00002417     -8807.9219681410 -3.64E-03
    45 OT DIIS     0.15E+00    1.5     0.00002435     -8807.9256565391 -3.69E-03
    46 OT DIIS     0.15E+00    1.5     0.00004963     -8807.9134014585  1.23E-02
    47 OT SD       0.15E+00    1.5     0.00005089     -8807.9142387275 -8.37E-04
    48 OT SD       0.15E+00    1.5     0.00004015     -8807.9285020850 -1.43E-02
    49 OT SD       0.15E+00    1.5     0.00003559     -8807.9379823807 -9.48E-03
    50 OT SD       0.15E+00    1.5     0.00003336     -8807.9456607538 -7.68E-03

  Leaving inner SCF loop after reaching    50 steps.


  Electronic density on regular grids:      -4096.0000074753       -0.0000074753
  Core density on regular grids:             4095.9999999927       -0.0000000073
  Total charge density on r-space grids:       -0.0000074825
  Total charge density g-space grids:          -0.0000074825

  Overlap energy of the core charge distribution:               0.00004500798551
  Self energy of the core charge distribution:             -22442.43995950839599
  Core Hamiltonian energy:                                   6603.78893611520652
  Hartree energy:                                            9161.23633797920411
  Exchange-correlation energy:                              -2130.53102034782933

  Total energy:                                             -8807.94566075382863

 *** WARNING in qs_scf.F:576 :: SCF run NOT converged ***


 ENERGY| Total FORCE_EVAL ( QS ) energy [a.u.]:            -8807.952523455545816

 MD_INI| MD initialization
 MD_INI| Potential energy [hartree]                          -0.880795252346E+04
 MD_INI| Kinetic energy [hartree]                             0.218747769838E+01
 MD_INI| Temperature [K]                                              300.000000
 MD_INI| Cell volume [bohr^3]                                 1.037187315243E+05
 MD_INI| Cell volume [ang^3]                                  1.536953010365E+04
 MD_INI| Cell lengths [bohr]      4.69842608E+01  4.69842608E+01  4.69842608E+01
 MD_INI| Cell lengths [ang]       2.48630000E+01  2.48630000E+01  2.48630000E+01
 MD_INI| Cell angles [deg]        9.00000000E+01  9.00000000E+01  9.00000000E+01

 Number of electrons:                                                       4096
 Number of occupied orbitals:                                               2048
 Number of molecular orbitals:                                              2048

 Number of orbital functions:                                              20480
 Number of independent orbital functions:                                  20480

 Extrapolation method: PS Nth order
 Extrapolation order:  0


 SCF WAVEFUNCTION OPTIMIZATION

  ----------------------------------- OT ---------------------------------------
  Minimizer      : DIIS                : direct inversion
                                         in the iterative subspace
                                         using   7 DIIS vectors
                                         safer DIIS on
  Preconditioner : FULL_KINETIC        : inversion of T + eS
  Precond_solver : DEFAULT
  stepsize       :    0.15000000                  energy_gap     :    0.20000000
  eps_taylor     :   0.10000E-15                  max_taylor     :             4
  ----------------------------------- OT ---------------------------------------

  Step     Update method      Time    Convergence         Total energy    Change
  ------------------------------------------------------------------------------
     1 OT DIIS     0.15E+00    4.0     0.00010167     -8807.9545725299 -8.81E+03
     2 OT DIIS     0.15E+00    1.3     0.00007399     -8808.0093228131 -5.48E-02
     3 OT DIIS     0.15E+00    1.3     0.00005493     -8808.0647113601 -5.54E-02
     4 OT DIIS     0.15E+00    1.3     0.00004933     -8808.1021254476 -3.74E-02
     5 OT DIIS     0.15E+00    1.5     0.00004590     -8808.1450514116 -4.29E-02
     6 OT DIIS     0.15E+00    1.5     0.00004349     -8808.1872334864 -4.22E-02
     7 OT DIIS     0.15E+00    1.5     0.00003911     -8808.2475810097 -6.03E-02
     8 OT DIIS     0.15E+00    1.5     0.00002829     -8808.3274065886 -7.98E-02
     9 OT DIIS     0.15E+00    1.5     0.00002026     -8808.3586619857 -3.13E-02
    10 OT DIIS     0.15E+00    1.5     0.00001287     -8808.3785358593 -1.99E-02
    11 OT DIIS     0.15E+00    1.5     0.00001026     -8808.3792634906 -7.28E-04
    12 OT DIIS     0.15E+00    1.5     0.00000705     -8808.3828059715 -3.54E-03

  *** SCF run converged in    12 steps ***


  Electronic density on regular grids:      -4096.0000079114       -0.0000079114
  Core density on regular grids:             4095.9999999916       -0.0000000084
  Total charge density on r-space grids:       -0.0000079198
  Total charge density g-space grids:          -0.0000079198

  Overlap energy of the core charge distribution:               0.00004378131890
  Self energy of the core charge distribution:             -22442.43995950839599
  Core Hamiltonian energy:                                   6601.18528558162870
  Hartree energy:                                            9162.93997529080661
  Exchange-correlation energy:                              -2130.06815111684227

  Total energy:                                             -8808.38280597148514

 ENERGY| Total FORCE_EVAL ( QS ) energy [a.u.]:            -8808.383482163131703

 MD| ***************************************************************************
 MD| Step number                                                               1
 MD| Time [fs]                                                          0.500000
 MD| Conserved quantity [hartree]                            -0.880615757147E+04
 MD| ---------------------------------------------------------------------------
 MD|                                          Instantaneous             Averages
 MD| CPU time per MD step [s]                    111.007441           111.007441
 MD| Energy drift per atom [K]          -0.806963999439E+02   0.000000000000E+00
 MD| Potential energy [hartree]         -0.880838348216E+04  -0.880838348216E+04
 MD| Kinetic energy [hartree]            0.222591068822E+01   0.222591068822E+01
 MD| Temperature [K]                             305.270864           305.270864
 MD| ***************************************************************************

 Number of electrons:                                                       4096
 Number of occupied orbitals:                                               2048
 Number of molecular orbitals:                                              2048

 Number of orbital functions:                                              20480
 Number of independent orbital functions:                                  20480

 Extrapolation method: PS Nth order
 Extrapolation order:  1


 SCF WAVEFUNCTION OPTIMIZATION

  ----------------------------------- OT ---------------------------------------
  Minimizer      : DIIS                : direct inversion
                                         in the iterative subspace
                                         using   7 DIIS vectors
                                         safer DIIS on
  Preconditioner : FULL_KINETIC        : inversion of T + eS
  Precond_solver : DEFAULT
  stepsize       :    0.15000000                  energy_gap     :    0.20000000
  eps_taylor     :   0.10000E-15                  max_taylor     :             4
  ----------------------------------- OT ---------------------------------------

  Step     Update method      Time    Convergence         Total energy    Change
  ------------------------------------------------------------------------------
     1 OT DIIS     0.15E+00    4.0     0.00008001     -8808.4313113977 -8.81E+03
     2 OT DIIS     0.15E+00    1.3     0.00005271     -8808.4637465100 -3.24E-02
     3 OT DIIS     0.15E+00    1.3     0.00003321     -8808.4886515207 -2.49E-02
     4 OT DIIS     0.15E+00    1.3     0.00002251     -8808.5029466439 -1.43E-02
     5 OT DIIS     0.15E+00    1.3     0.00001406     -8808.5119296893 -8.98E-03
     6 OT DIIS     0.15E+00    1.3     0.00000837     -8808.5159231312 -3.99E-03

  *** SCF run converged in     6 steps ***


  Electronic density on regular grids:      -4096.0000084062       -0.0000084062
  Core density on regular grids:             4095.9999999941       -0.0000000059
  Total charge density on r-space grids:       -0.0000084121
  Total charge density g-space grids:          -0.0000084121

  Overlap energy of the core charge distribution:               0.00003948978898
  Self energy of the core charge distribution:             -22442.43995950839599
  Core Hamiltonian energy:                                   6592.75633854983607
  Hartree energy:                                            9168.97934263390562
  Exchange-correlation energy:                              -2127.81168429630634

  Total energy:                                             -8808.51592313116998

 ENERGY| Total FORCE_EVAL ( QS ) energy [a.u.]:            -8808.517234709182958

 MD| ***************************************************************************
 MD| Step number                                                               2
 MD| Time [fs]                                                          1.000000
 MD| Conserved quantity [hartree]                            -0.880616181945E+04
 MD| ---------------------------------------------------------------------------
 MD|                                          Instantaneous             Averages
 MD| CPU time per MD step [s]                     11.831052            61.419247
 MD| Energy drift per atom [K]          -0.815697097988E+02  -0.407848548994E+02
 MD| Potential energy [hartree]         -0.880851723471E+04  -0.880845035844E+04
 MD| Kinetic energy [hartree]            0.235541525570E+01   0.229066297196E+01
 MD| Temperature [K]                             323.031671           314.151268
 MD| ***************************************************************************

 Number of electrons:                                                       4096
 Number of occupied orbitals:                                               2048
 Number of molecular orbitals:                                              2048

 Number of orbital functions:                                              20480
 Number of independent orbital functions:                                  20480

 Extrapolation method: PS Nth order
 Extrapolation order:  2


 SCF WAVEFUNCTION OPTIMIZATION

  ----------------------------------- OT ---------------------------------------
  Minimizer      : DIIS                : direct inversion
                                         in the iterative subspace
                                         using   7 DIIS vectors
                                         safer DIIS on
  Preconditioner : FULL_KINETIC        : inversion of T + eS
  Precond_solver : DEFAULT
  stepsize       :    0.15000000                  energy_gap     :    0.20000000
  eps_taylor     :   0.10000E-15                  max_taylor     :             4
  ----------------------------------- OT ---------------------------------------

  Step     Update method      Time    Convergence         Total energy    Change
  ------------------------------------------------------------------------------
     1 OT DIIS     0.15E+00    4.0     0.00008987     -8808.3717414414 -8.81E+03
     2 OT DIIS     0.15E+00    1.3     0.00007427     -8808.4174363476 -4.57E-02
     3 OT DIIS     0.15E+00    1.3     0.00005876     -8808.4862025341 -6.88E-02
     4 OT DIIS     0.15E+00    1.3     0.00004979     -8808.5436869047 -5.75E-02
     5 OT DIIS     0.15E+00    1.3     0.00004006     -8808.6033847111 -5.97E-02
     6 OT DIIS     0.15E+00    1.5     0.00002840     -8808.6545537585 -5.12E-02
     7 OT DIIS     0.15E+00    1.6     0.00001854     -8808.6820986596 -2.75E-02
     8 OT DIIS     0.15E+00    1.5     0.00001252     -8808.6920693736 -9.97E-03
     9 OT DIIS     0.15E+00    1.5     0.00000891     -8808.6959108122 -3.84E-03

  *** SCF run converged in     9 steps ***


  Electronic density on regular grids:      -4096.0000081507       -0.0000081507
  Core density on regular grids:             4095.9999999985       -0.0000000015
  Total charge density on r-space grids:       -0.0000081522
  Total charge density g-space grids:          -0.0000081522

  Overlap energy of the core charge distribution:               0.00003222726294
  Self energy of the core charge distribution:             -22442.43995950839599
  Core Hamiltonian energy:                                   6579.97335025053599
  Hartree energy:                                            9178.11108503881405
  Exchange-correlation energy:                              -2124.34041882040901

  Total energy:                                             -8808.69591081219005

 ENERGY| Total FORCE_EVAL ( QS ) energy [a.u.]:            -8808.697758528975100

 MD| ***************************************************************************
 MD| Step number                                                               3
 MD| Time [fs]                                                          1.500000
 MD| Conserved quantity [hartree]                            -0.880616479907E+04
 MD| ---------------------------------------------------------------------------
 MD|                                          Instantaneous             Averages
 MD| CPU time per MD step [s]                     16.927604            46.588699
 MD| Energy drift per atom [K]          -0.821822667638E+02  -0.545839921876E+02
 MD| Potential energy [hartree]         -0.880869775853E+04  -0.880853282513E+04
 MD| Kinetic energy [hartree]            0.253295945852E+01   0.237142846748E+01
 MD| Temperature [K]                             347.380839           325.227791
 MD| ***************************************************************************

 Number of electrons:                                                       4096
 Number of occupied orbitals:                                               2048
 Number of molecular orbitals:                                              2048

 Number of orbital functions:                                              20480
 Number of independent orbital functions:                                  20480

 Extrapolation method: PS Nth order
 Extrapolation order:  3


 SCF WAVEFUNCTION OPTIMIZATION

  ----------------------------------- OT ---------------------------------------
  Minimizer      : DIIS                : direct inversion
                                         in the iterative subspace
                                         using   7 DIIS vectors
                                         safer DIIS on
  Preconditioner : FULL_KINETIC        : inversion of T + eS
  Precond_solver : DEFAULT
  stepsize       :    0.15000000                  energy_gap     :    0.20000000
  eps_taylor     :   0.10000E-15                  max_taylor     :             4
  ----------------------------------- OT ---------------------------------------

  Step     Update method      Time    Convergence         Total energy    Change
  ------------------------------------------------------------------------------
     1 OT DIIS     0.15E+00    4.0     0.00008299     -8808.7601029560 -8.81E+03
     2 OT DIIS     0.15E+00    1.3     0.00005686     -8808.7956203401 -3.55E-02
     3 OT DIIS     0.15E+00    1.3     0.00003614     -8808.8258148433 -3.02E-02
     4 OT DIIS     0.15E+00    1.3     0.00002270     -8808.8440350712 -1.82E-02
     5 OT DIIS     0.15E+00    1.3     0.00001489     -8808.8523331240 -8.30E-03
     6 OT DIIS     0.15E+00    1.3     0.00000969     -8808.8563578265 -4.02E-03

  *** SCF run converged in     6 steps ***


  Electronic density on regular grids:      -4096.0000085819       -0.0000085819
  Core density on regular grids:             4096.0000000009        0.0000000009
  Total charge density on r-space grids:       -0.0000085811
  Total charge density g-space grids:          -0.0000085811

  Overlap energy of the core charge distribution:               0.00002346614095
  Self energy of the core charge distribution:             -22442.43995950839599
  Core Hamiltonian energy:                                   6564.27157655456449
  Hartree energy:                                            9189.38286775645793
  Exchange-correlation energy:                              -2120.07086609522685

  Total energy:                                             -8808.85635782645841

 ENERGY| Total FORCE_EVAL ( QS ) energy [a.u.]:            -8808.858124099322595

 MD| ***************************************************************************
 MD| Step number                                                               4
 MD| Time [fs]                                                          2.000000
 MD| Conserved quantity [hartree]                            -0.880616980230E+04
 MD| ---------------------------------------------------------------------------
 MD|                                          Instantaneous             Averages
 MD| CPU time per MD step [s]                     12.261816            38.006978
 MD| Energy drift per atom [K]          -0.832108428541E+02  -0.617407048542E+02
 MD| Potential energy [hartree]         -0.880885812410E+04  -0.880861414988E+04
 MD| Kinetic energy [hartree]            0.268832179988E+01   0.245065180058E+01
 MD| Temperature [K]                             368.687891           336.092816
 MD| ***************************************************************************

 Number of electrons:                                                       4096
 Number of occupied orbitals:                                               2048
 Number of molecular orbitals:                                              2048

 Number of orbital functions:                                              20480
 Number of independent orbital functions:                                  20480

 Extrapolation method: PS Nth order
 Extrapolation order:  3


 SCF WAVEFUNCTION OPTIMIZATION

  ----------------------------------- OT ---------------------------------------
  Minimizer      : DIIS                : direct inversion
                                         in the iterative subspace
                                         using   7 DIIS vectors
                                         safer DIIS on
  Preconditioner : FULL_KINETIC        : inversion of T + eS
  Precond_solver : DEFAULT
  stepsize       :    0.15000000                  energy_gap     :    0.20000000
  eps_taylor     :   0.10000E-15                  max_taylor     :             4
  ----------------------------------- OT ---------------------------------------

  Step     Update method      Time    Convergence         Total energy    Change
  ------------------------------------------------------------------------------
     1 OT DIIS     0.15E+00    4.0     0.00005398     -8808.8521906491 -8.81E+03
     2 OT DIIS     0.15E+00    1.3     0.00004360     -8808.8685907950 -1.64E-02
     3 OT DIIS     0.15E+00    1.5     0.00002876     -8808.8948212222 -2.62E-02
     4 OT DIIS     0.15E+00    1.5     0.00002104     -8808.9082141558 -1.34E-02
     5 OT DIIS     0.15E+00    1.5     0.00001317     -8808.9185208710 -1.03E-02
     6 OT DIIS     0.15E+00    1.5     0.00000843     -8808.9223720839 -3.85E-03

  *** SCF run converged in     6 steps ***


  Electronic density on regular grids:      -4096.0000071800       -0.0000071800
  Core density on regular grids:             4095.9999999999       -0.0000000001
  Total charge density on r-space grids:       -0.0000071801
  Total charge density g-space grids:          -0.0000071801

  Overlap energy of the core charge distribution:               0.00001548084055
  Self energy of the core charge distribution:             -22442.43995950839599
  Core Hamiltonian energy:                                   6547.40961534238977
  Hartree energy:                                            9201.58656686376708
  Exchange-correlation energy:                              -2115.47861026247938

  Total energy:                                             -8808.92237208387814

 ENERGY| Total FORCE_EVAL ( QS ) energy [a.u.]:            -8808.923935099557639

 MD| ***************************************************************************
 MD| Step number                                                               5
 MD| Time [fs]                                                          2.500000
 MD| Conserved quantity [hartree]                            -0.880617229055E+04
 MD| ---------------------------------------------------------------------------
 MD|                                          Instantaneous             Averages
 MD| CPU time per MD step [s]                     13.310355            33.067654
 MD| Energy drift per atom [K]          -0.837223827906E+02  -0.661370404415E+02
 MD| Potential energy [hartree]         -0.880892393510E+04  -0.880867610692E+04
 MD| Kinetic energy [hartree]            0.275164455304E+01   0.251085035107E+01
 MD| Temperature [K]                             377.372243           344.348702
 MD| ***************************************************************************

 Number of electrons:                                                       4096
 Number of occupied orbitals:                                               2048
 Number of molecular orbitals:                                              2048

 Number of orbital functions:                                              20480
 Number of independent orbital functions:                                  20480

 Extrapolation method: PS Nth order
 Extrapolation order:  3


 SCF WAVEFUNCTION OPTIMIZATION

  ----------------------------------- OT ---------------------------------------
  Minimizer      : DIIS                : direct inversion
                                         in the iterative subspace
                                         using   7 DIIS vectors
                                         safer DIIS on
  Preconditioner : FULL_KINETIC        : inversion of T + eS
  Precond_solver : DEFAULT
  stepsize       :    0.15000000                  energy_gap     :    0.20000000
  eps_taylor     :   0.10000E-15                  max_taylor     :             4
  ----------------------------------- OT ---------------------------------------

  Step     Update method      Time    Convergence         Total energy    Change
  ------------------------------------------------------------------------------
     1 OT DIIS     0.15E+00    4.0     0.00004459     -8808.8152215947 -8.81E+03
     2 OT DIIS     0.15E+00    1.3     0.00003657     -8808.8265174720 -1.13E-02
     3 OT DIIS     0.15E+00    1.3     0.00002088     -8808.8466693602 -2.02E-02
     4 OT DIIS     0.15E+00    1.3     0.00001310     -8808.8539212058 -7.25E-03
     5 OT DIIS     0.15E+00    1.3     0.00000884     -8808.8567200108 -2.80E-03

  *** SCF run converged in     5 steps ***


  Electronic density on regular grids:      -4096.0000062625       -0.0000062625
  Core density on regular grids:             4095.9999999983       -0.0000000017
  Total charge density on r-space grids:       -0.0000062642
  Total charge density g-space grids:          -0.0000062642

  Overlap energy of the core charge distribution:               0.00000971625666
  Self energy of the core charge distribution:             -22442.43995950839599
  Core Hamiltonian energy:                                   6531.17272301109369
  Hartree energy:                                            9213.44169077419247
  Exchange-correlation energy:                              -2111.03118400391668

  Total energy:                                             -8808.85672001077182

 ENERGY| Total FORCE_EVAL ( QS ) energy [a.u.]:            -8808.858096152991493

 MD| ***************************************************************************
 MD| Step number                                                               6
 MD| Time [fs]                                                          3.000000
 MD| Conserved quantity [hartree]                            -0.880617011422E+04
 MD| ---------------------------------------------------------------------------
 MD|                                          Instantaneous             Averages
 MD| CPU time per MD step [s]                     11.050375            29.398107
 MD| Energy drift per atom [K]          -0.832749673482E+02  -0.689933615926E+02
 MD| Potential energy [hartree]         -0.880885809615E+04  -0.880870643846E+04
 MD| Kinetic energy [hartree]            0.268798193736E+01   0.254037228212E+01
 MD| Temperature [K]                             368.641281           348.397465
 MD| ***************************************************************************

 Number of electrons:                                                       4096
 Number of occupied orbitals:                                               2048
 Number of molecular orbitals:                                              2048

 Number of orbital functions:                                              20480
 Number of independent orbital functions:                                  20480

 Extrapolation method: PS Nth order
 Extrapolation order:  3


 SCF WAVEFUNCTION OPTIMIZATION

  ----------------------------------- OT ---------------------------------------
  Minimizer      : DIIS                : direct inversion
                                         in the iterative subspace
                                         using   7 DIIS vectors
                                         safer DIIS on
  Preconditioner : FULL_KINETIC        : inversion of T + eS
  Precond_solver : DEFAULT
  stepsize       :    0.15000000                  energy_gap     :    0.20000000
  eps_taylor     :   0.10000E-15                  max_taylor     :             4
  ----------------------------------- OT ---------------------------------------

  Step     Update method      Time    Convergence         Total energy    Change
  ------------------------------------------------------------------------------
     1 OT DIIS     0.15E+00    4.0     0.00004551     -8808.6384762833 -8.81E+03
     2 OT DIIS     0.15E+00    1.3     0.00003729     -8808.6502431888 -1.18E-02
     3 OT DIIS     0.15E+00    1.3     0.00002023     -8808.6710754212 -2.08E-02
     4 OT DIIS     0.15E+00    1.3     0.00001308     -8808.6771450580 -6.07E-03
     5 OT DIIS     0.15E+00    1.3     0.00000755     -8808.6802141347 -3.07E-03

  *** SCF run converged in     5 steps ***


  Electronic density on regular grids:      -4096.0000050933       -0.0000050933
  Core density on regular grids:             4095.9999999989       -0.0000000011
  Total charge density on r-space grids:       -0.0000050945
  Total charge density g-space grids:          -0.0000050945

  Overlap energy of the core charge distribution:               0.00000622092101
  Self energy of the core charge distribution:             -22442.43995950839599
  Core Hamiltonian energy:                                   6517.03118079114938
  Hartree energy:                                            9223.86272547868793
  Exchange-correlation energy:                              -2107.13416711705349

  Total energy:                                             -8808.68021413469069

 ENERGY| Total FORCE_EVAL ( QS ) energy [a.u.]:            -8808.681147778828745

 MD| ***************************************************************************
 MD| Step number                                                               7
 MD| Time [fs]                                                          3.500000
 MD| Conserved quantity [hartree]                            -0.880616595841E+04
 MD| ---------------------------------------------------------------------------
 MD|                                          Instantaneous             Averages
 MD| CPU time per MD step [s]                     10.985093            26.767677
 MD| Energy drift per atom [K]          -0.824206075374E+02  -0.709115395847E+02
 MD| Potential energy [hartree]         -0.880868114778E+04  -0.880870282550E+04
 MD| Kinetic energy [hartree]            0.251518936442E+01   0.253677472245E+01
 MD| Temperature [K]                             344.943772           347.904080
 MD| ***************************************************************************

 Number of electrons:                                                       4096
 Number of occupied orbitals:                                               2048
 Number of molecular orbitals:                                              2048

 Number of orbital functions:                                              20480
 Number of independent orbital functions:                                  20480

 Extrapolation method: PS Nth order
 Extrapolation order:  3


 SCF WAVEFUNCTION OPTIMIZATION

  ----------------------------------- OT ---------------------------------------
  Minimizer      : DIIS                : direct inversion
                                         in the iterative subspace
                                         using   7 DIIS vectors
                                         safer DIIS on
  Preconditioner : FULL_KINETIC        : inversion of T + eS
  Precond_solver : DEFAULT
  stepsize       :    0.15000000                  energy_gap     :    0.20000000
  eps_taylor     :   0.10000E-15                  max_taylor     :             4
  ----------------------------------- OT ---------------------------------------

  Step     Update method      Time    Convergence         Total energy    Change
  ------------------------------------------------------------------------------
     1 OT DIIS     0.15E+00    4.0     0.00004640     -8808.4083494884 -8.81E+03
     2 OT DIIS     0.15E+00    1.3     0.00003771     -8808.4205189645 -1.22E-02
     3 OT DIIS     0.15E+00    1.3     0.00002094     -8808.4409405864 -2.04E-02
     4 OT DIIS     0.15E+00    1.3     0.00001360     -8808.4479497163 -7.01E-03
     5 OT DIIS     0.15E+00    1.3     0.00001073     -8808.4504245387 -2.47E-03
     6 OT DIIS     0.15E+00    1.3     0.00000737     -8808.4530066234 -2.58E-03

  *** SCF run converged in     6 steps ***


  Electronic density on regular grids:      -4096.0000038469       -0.0000038469
  Core density on regular grids:             4096.0000000008        0.0000000008
  Total charge density on r-space grids:       -0.0000038460
  Total charge density g-space grids:          -0.0000038460

  Overlap energy of the core charge distribution:               0.00000436187177
  Self energy of the core charge distribution:             -22442.43995950839599
  Core Hamiltonian energy:                                   6506.06509259706763
  Hartree energy:                                            9232.01158649857098
  Exchange-correlation energy:                              -2104.08973057250478

  Total energy:                                             -8808.45300662339105

 ENERGY| Total FORCE_EVAL ( QS ) energy [a.u.]:            -8808.454571381975256

 MD| ***************************************************************************
 MD| Step number                                                               8
 MD| Time [fs]                                                          4.000000
 MD| Conserved quantity [hartree]                            -0.880616115145E+04
 MD| ---------------------------------------------------------------------------
 MD|                                          Instantaneous             Averages
 MD| CPU time per MD step [s]                     12.281455            24.956899
 MD| Energy drift per atom [K]          -0.814323796921E+02  -0.722266445981E+02
 MD| Potential energy [hartree]         -0.880845457138E+04  -0.880867179374E+04
 MD| Kinetic energy [hartree]            0.229341993349E+01   0.250635537383E+01
 MD| Temperature [K]                             314.529369           343.732241
 MD| ***************************************************************************

 Number of electrons:                                                       4096
 Number of occupied orbitals:                                               2048
 Number of molecular orbitals:                                              2048

 Number of orbital functions:                                              20480
 Number of independent orbital functions:                                  20480

 Extrapolation method: PS Nth order
 Extrapolation order:  3


 SCF WAVEFUNCTION OPTIMIZATION

  ----------------------------------- OT ---------------------------------------
  Minimizer      : DIIS                : direct inversion
                                         in the iterative subspace
                                         using   7 DIIS vectors
                                         safer DIIS on
  Preconditioner : FULL_KINETIC        : inversion of T + eS
  Precond_solver : DEFAULT
  stepsize       :    0.15000000                  energy_gap     :    0.20000000
  eps_taylor     :   0.10000E-15                  max_taylor     :             4
  ----------------------------------- OT ---------------------------------------

  Step     Update method      Time    Convergence         Total energy    Change
  ------------------------------------------------------------------------------
     1 OT DIIS     0.15E+00    4.0     0.00004050     -8808.2146952174 -8.81E+03
     2 OT DIIS     0.15E+00    1.3     0.00003407     -8808.2241572302 -9.46E-03
     3 OT DIIS     0.15E+00    1.3     0.00001718     -8808.2450182392 -2.09E-02
     4 OT DIIS     0.15E+00    1.3     0.00001245     -8808.2495173694 -4.50E-03
     5 OT DIIS     0.15E+00    1.3     0.00000891     -8808.2522163231 -2.70E-03

  *** SCF run converged in     5 steps ***


  Electronic density on regular grids:      -4096.0000022243       -0.0000022243
  Core density on regular grids:             4096.0000000016        0.0000000016
  Total charge density on r-space grids:       -0.0000022227
  Total charge density g-space grids:          -0.0000022227

  Overlap energy of the core charge distribution:               0.00000353692335
  Self energy of the core charge distribution:             -22442.43995950839599
  Core Hamiltonian energy:                                   6498.75943621983788
  Hartree energy:                                            9237.49747628024306
  Exchange-correlation energy:                              -2102.06917285167401

  Total energy:                                             -8808.25221632306602

 ENERGY| Total FORCE_EVAL ( QS ) energy [a.u.]:            -8808.253873906949593

 MD| ***************************************************************************
 MD| Step number                                                               9
 MD| Time [fs]                                                          4.500000
 MD| Conserved quantity [hartree]                            -0.880615635640E+04
 MD| ---------------------------------------------------------------------------
 MD|                                          Instantaneous             Averages
 MD| CPU time per MD step [s]                     10.994203            23.405488
 MD| Energy drift per atom [K]          -0.804466013712E+02  -0.731399731285E+02
 MD| Potential energy [hartree]         -0.880825387391E+04  -0.880862535820E+04
 MD| Kinetic energy [hartree]            0.209751750934E+01   0.246092894444E+01
 MD| Temperature [K]                             287.662477           337.502268
 MD| ***************************************************************************

 Number of electrons:                                                       4096
 Number of occupied orbitals:                                               2048
 Number of molecular orbitals:                                              2048

 Number of orbital functions:                                              20480
 Number of independent orbital functions:                                  20480

 Extrapolation method: PS Nth order
 Extrapolation order:  3


 SCF WAVEFUNCTION OPTIMIZATION

  ----------------------------------- OT ---------------------------------------
  Minimizer      : DIIS                : direct inversion
                                         in the iterative subspace
                                         using   7 DIIS vectors
                                         safer DIIS on
  Preconditioner : FULL_KINETIC        : inversion of T + eS
  Precond_solver : DEFAULT
  stepsize       :    0.15000000                  energy_gap     :    0.20000000
  eps_taylor     :   0.10000E-15                  max_taylor     :             4
  ----------------------------------- OT ---------------------------------------

  Step     Update method      Time    Convergence         Total energy    Change
  ------------------------------------------------------------------------------
     1 OT DIIS     0.15E+00    4.0     0.00004012     -8808.1037272734 -8.81E+03
     2 OT DIIS     0.15E+00    1.3     0.00003342     -8808.1129249240 -9.20E-03
     3 OT DIIS     0.15E+00    1.3     0.00002048     -8808.1296918652 -1.68E-02
     4 OT DIIS     0.15E+00    1.3     0.00001263     -8808.1379701601 -8.28E-03
     5 OT DIIS     0.15E+00    1.3     0.00001017     -8808.1402116726 -2.24E-03
     6 OT DIIS     0.15E+00    1.3     0.00000715     -8808.1425472569 -2.34E-03

  *** SCF run converged in     6 steps ***


  Electronic density on regular grids:      -4096.0000006753       -0.0000006753
  Core density on regular grids:             4096.0000000008        0.0000000008
  Total charge density on r-space grids:       -0.0000006746
  Total charge density g-space grids:          -0.0000006746

  Overlap energy of the core charge distribution:               0.00000340787813
  Self energy of the core charge distribution:             -22442.43995950839599
  Core Hamiltonian energy:                                   6495.52247439244456
  Hartree energy:                                            9239.94935095856090
  Exchange-correlation energy:                              -2101.17441650741694

  Total energy:                                             -8808.14254725693172

 ENERGY| Total FORCE_EVAL ( QS ) energy [a.u.]:            -8808.143948340424686

 MD| ***************************************************************************
 MD| Step number                                                              10
 MD| Time [fs]                                                          5.000000
 MD| Conserved quantity [hartree]                            -0.880615520887E+04
 MD| ---------------------------------------------------------------------------
 MD|                                          Instantaneous             Averages
 MD| CPU time per MD step [s]                     12.303463            22.295286
 MD| Energy drift per atom [K]          -0.802106890438E+02  -0.738470447200E+02
 MD| Potential energy [hartree]         -0.880814394834E+04  -0.880857721722E+04
 MD| Kinetic energy [hartree]            0.198873947425E+01   0.241370999742E+01
 MD| Temperature [K]                             272.744194           331.026460
 MD| ***************************************************************************

 -------------------------------------------------------------------------------
 -                                                                             -
 -                                DBCSR STATISTICS                             -
 -                                                                             -
 -------------------------------------------------------------------------------
 COUNTER                                    TOTAL       BLAS       SMM       ACC
 flops     9 x    32 x    32          13287555072     100.0%      0.0%      0.0%
 flops    22 x    32 x    32          16240345088     100.0%      0.0%      0.0%
 flops    32 x   128 x   128         678067961856     100.0%      0.0%      0.0%
 flops    96 x   128 x   128        2034203885568     100.0%      0.0%      0.0%
 flops    32 x   128 x  1280        3648037847040     100.0%      0.0%      0.0%
 flops     9 x     9 x   128        5648350040064     100.0%      0.0%      0.0%
 flops     9 x    22 x   128        7855827369984     100.0%      0.0%      0.0%
 flops    22 x     9 x   128        7866447519744     100.0%      0.0%      0.0%
 flops    96 x   128 x  1280       10944113541120     100.0%      0.0%      0.0%
 flops    22 x    22 x   128       11004752822272     100.0%      0.0%      0.0%
 flops    64 x   128 x   128       11753178005504     100.0%      0.0%      0.0%
 flops   569 x   128 x   128       21307198537728     100.0%      0.0%      0.0%
 flops   591 x   128 x   128       22131026952192     100.0%      0.0%      0.0%
 flops     9 x    32 x     9       23722505551872     100.0%      0.0%      0.0%
 flops   689 x   128 x   128       25800808071168     100.0%      0.0%      0.0%
 flops   711 x   128 x   128       26624636485632     100.0%      0.0%      0.0%
 flops     9 x    32 x    22       33153656684544     100.0%      0.0%      0.0%
 flops    22 x    32 x     9       33153656684544     100.0%      0.0%      0.0%
 flops    22 x    32 x    22       46115724689408     100.0%      0.0%      0.0%
 flops   569 x   128 x  1280       48494878392320     100.0%      0.0%      0.0%
 flops   591 x   128 x  1280       50369900052480     100.0%      0.0%      0.0%
 flops   689 x   128 x  1280       58722269265920     100.0%      0.0%      0.0%
 flops   711 x   128 x  1280       60597290926080     100.0%      0.0%      0.0%
 flops    64 x   128 x  1280       63232656015360     100.0%      0.0%      0.0%
 flops inhomo. stacks                           0       0.0%      0.0%      0.0%
 flops total                       574.888715E+12     100.0%      0.0%      0.0%
 flops max/rank                      2.267457E+12     100.0%      0.0%      0.0%
 matmuls inhomo. stacks                         0       0.0%      0.0%      0.0%
 matmuls total                        11986131072     100.0%      0.0%      0.0%
 number of processed stacks              37164752     100.0%      0.0%      0.0%
 average stack size                                   322.5       0.0       0.0
 marketing flops                     1.147134E+15
 -------------------------------------------------------------------------------
 # multiplications                           2431
 max memory usage/rank             428.277760E+06
 # max total images/rank                        1
 # max 3D layers                                1
 # MPI messages exchanged                18670080
 MPI messages size (bytes):
  total size                        22.426243E+12
  min size                           0.000000E+00
  max size                          13.107200E+06
  average size                       1.201186E+06
 MPI breakdown and total messages size (bytes):
             size <=      128              124080                        0
       128 < size <=     8192                   0                        0
      8192 < size <=    32768                2640                 86507520
     32768 < size <=   131072             8609280            1128435548160
    131072 < size <=  4194304             9446400           14905573424160
   4194304 < size <= 16777216              487680            6392119296000
  16777216 < size                               0                        0
 -------------------------------------------------------------------------------
 -                                                                             -
 -                      DBCSR MESSAGE PASSING PERFORMANCE                      -
 -                                                                             -
 -------------------------------------------------------------------------------
 ROUTINE             CALLS      AVE VOLUME [Bytes]
 MP_Bcast               25                     12.
 MP_Allreduce        12979                     67.
 MP_Alltoall          9270                 252484.
 MP_ISend           155540                 565162.
 MP_IRecv           155540                 564913.
 -------------------------------------------------------------------------------

 -------------------------------------------------------------------------------
 -                                                                             -
 -                                GRID STATISTICS                              -
 -                                                                             -
 -------------------------------------------------------------------------------
 LP    KERNEL             BACKEND                              COUNT     PERCENT
 1     collocate ortho    REF                              135745301      21.07%
 1     integrate ortho    REF                              130493488      20.25%
 2     integrate ortho    REF                               88995618      13.81%
 2     collocate ortho    REF                               84560451      13.12%
 0     collocate ortho    REF                               75171698      11.67%
 0     integrate ortho    REF                               68664071      10.66%
 3     integrate ortho    REF                               26282166       4.08%
 3     collocate ortho    REF                               20755016       3.22%
 0     collocate general  REF                                4325376       0.67%
 1     integrate general  REF                                4325376       0.67%
 4     integrate ortho    REF                                3293394       0.51%
 4     collocate ortho    REF                                1638196       0.25%
 5     integrate ortho    REF                                 141925       0.02%
 -------------------------------------------------------------------------------

 MEMORY| Estimated peak process memory [MiB]                                 409

 -------------------------------------------------------------------------------
 -                                                                             -
 -                         MESSAGE PASSING PERFORMANCE                         -
 -                                                                             -
 -------------------------------------------------------------------------------

 ROUTINE             CALLS      AVE VOLUME [Bytes]
 MP_Group                4
 MP_Bcast             4017                  57863.
 MP_Allreduce        11015                   1322.
 MP_Sync               136
 MP_Alltoall          2465                1828021.
 MP_ISendRecv       129540                  16416.
 MP_Wait            156060
 MP_comm_split          66
 MP_ISend            23892                  69215.
 MP_IRecv            23892                  69215.
 -------------------------------------------------------------------------------


 -------------------------------------------------------------------------------
 -                                                                             -
 -                           R E F E R E N C E S                               -
 -                                                                             -
 -------------------------------------------------------------------------------
 
 CP2K version 8.2, the CP2K developers group (2021).
 CP2K is freely available from https://www.cp2k.org/ .

 Kuehne,Thomas D.; Iannuzzi,Marcella; Del Ben,Mauro;
 Rybkin,Vladimir V.; Seewald,Patrick; Stein,Frederick; Laino,Teodoro;
 Khaliullin,Rustam Z.; Schuett,Ole; Schiffmann,Florian; Golze,Dorothea;
 Wilhelm,Jan; Chulkov,Sergey; Bani-Hashemian,Mohammad Hossein;
 Weber,Valery; Borstnik,Urban; Taillefumier,Mathieu;
 Jakobovits,Alice Shoshana; Lazzaro,Alfio; Pabst,Hans; Mueller,Tiziano;
 Schade,Robert; Guidon,Manuel; Andermatt,Samuel; Holmberg,Nico;
 Schenter,Gregory K.; Hehn,Anna; Bussy,Augustin; Belleflamme,Fabian;
 Tabacchi,Gloria; Gloess,Andreas; Lass,Michael; Bethune,Iain;
 Mundy,Christopher J.; Plessl,Christian; Watkins,Matt;
 VandeVondele,Joost; Krack,Matthias; Hutter,Juerg. 
 The Journal of Chemical Physics, 152 (19), (2020). 
 CP2K: An electronic structure and molecular dynamics software package -
 Quickstep: Efficient and accurate electronic structure calculations.
 https://doi.org/10.1063/5.0007045

 Schuett, Ole; Messmer, Peter; Hutter, Juerg; VandeVondele, Joost. 
 Electronic Structure Calculations on Graphics Processing Units, John
 Wiley & Sons, Ltd, 173-190 (2016). 
 GPU-Accelerated Sparse Matrix-Matrix Multiplication for
 Linear Scaling Density Functional Theory.
 https://doi.org/10.1002/9781118670712.ch8

 Borstnik, U; VandeVondele, J; Weber, V; Hutter, J. 
 PARALLEL COMPUTING, 40 (5-6), 47-58 (2014). 
 Sparse matrix multiplication: The distributed block-compressed sparse
 row library.
 https://doi.org/10.1016/j.parco.2014.03.012

 Hutter, J; Iannuzzi, M; Schiffmann, F; VandeVondele, J. 
 WIREs Comput Mol Sci., 4 (1), 15-25 (2014). 
 CP2K: atomistic simulations of condensed matter systems.
 https://doi.org/10.1002/wcms.1159

 Marek, A; Blum, V; Johanni, R; Havu, V; Lang, B; Auckenthaler, T;
 Heinecke, A; Bungartz, H; Lederer, H. 
 Journal of Physics: Condensed Matter, 26 (21), (2014). 
 The ELPA library: scalable parallel eigenvalue solutions for
 electronic structure
 theory and computational science.
 https://doi.org/10.1088/0953-8984/26/21/213201

 Krack, M. 
 THEORETICAL CHEMISTRY ACCOUNTS, 114 (1-3), 145-152 (2005). 
 Pseudopotentials for H to Kr optimized for gradient-corrected
 exchange-correlation functionals.
 https://doi.org/10.1007/s00214-005-0655-y

 VandeVondele, J; Krack, M; Mohamed, F; Parrinello, M; Chassaing, T;
 Hutter, J. COMPUTER PHYSICS COMMUNICATIONS, 167 (2), 103-128 (2005). 
 QUICKSTEP: Fast and accurate density functional calculations using a
 mixed Gaussian and plane waves approach.
 https://doi.org/10.1016/j.cpc.2004.12.014

 Frigo, M; Johnson, SG. 
 PROCEEDINGS OF THE IEEE, 93 (2), 216-231 (2005). 
 The design and implementation of FFTW3.
 https://doi.org/10.1109/JPROC.2004.840301

 VandeVondele, J; Hutter, J. 
 JOURNAL OF CHEMICAL PHYSICS, 118 (10), 4365-4369 (2003). 
 An efficient orbital transformation method for electronic structure
 calculations.
 https://doi.org/10.1063/1.1543154

 Hartwigsen, C; Goedecker, S; Hutter, J. 
 PHYSICAL REVIEW B, 58 (7), 3641-3662 (1998). 
 Relativistic separable dual-space Gaussian pseudopotentials from H to Rn.
 https://doi.org/10.1103/PhysRevB.58.3641

 Lippert, G; Hutter, J; Parrinello, M. 
 MOLECULAR PHYSICS, 92 (3), 477-487 (1997). 
 A hybrid Gaussian and plane wave density functional scheme.
 https://doi.org/10.1080/002689797170220

 Goedecker, S; Teter, M; Hutter, J. 
 PHYSICAL REVIEW B, 54 (3), 1703-1710 (1996). 
 Separable dual-space Gaussian pseudopotentials.
 https://doi.org/10.1103/PhysRevB.54.1703


 -------------------------------------------------------------------------------
 -                                                                             -
 -                                T I M I N G                                  -
 -                                                                             -
 -------------------------------------------------------------------------------
 SUBROUTINE                       CALLS  ASD         SELF TIME        TOTAL TIME
                                MAXIMUM       AVERAGE  MAXIMUM  AVERAGE  MAXIMUM
 CP2K                                 1  1.0    0.190    0.193  223.733  223.734
 qs_mol_dyn_low                       1  2.0    0.004    0.005  223.364  223.387
 qs_forces                           11  3.9    0.005    0.005  222.847  222.847
 qs_energies                         11  4.9    0.001    0.002  218.728  218.766
 scf_env_do_scf                      11  5.9    0.001    0.001  197.291  197.292
 scf_env_do_scf_inner_loop          116  6.6    0.003    0.010  165.319  165.321
 velocity_verlet                     10  3.0    0.002    0.002  133.304  133.304
 dbcsr_multiply_generic            2431 12.5    0.166    0.177  130.183  131.874
 qs_scf_new_mos                     116  7.6    0.001    0.001  129.361  129.716
 qs_scf_loop_do_ot                  116  8.6    0.001    0.001  129.360  129.715
 ot_scf_mini                        116  9.6    0.004    0.005  121.148  121.643
 multiply_cannon                   2431 13.5    0.248    0.278  107.996  111.852
 multiply_cannon_loop              2431 14.5    0.311    0.370  105.293  109.172
 multiply_cannon_multrec          38896 15.5   76.922   85.240   76.937   85.255
 ot_mini                            116 10.6    0.002    0.002   73.641   74.113
 qs_ot_get_derivative               116 11.6    0.001    0.002   41.456   41.927
 mp_waitall_1                    482232 15.9   26.082   37.372   26.082   37.372
 apply_preconditioner_dbcsr         127 12.6    0.000    0.001   32.264   32.999
 apply_single                       127 13.6    0.001    0.001   32.264   32.999
 ot_diis_step                       116 11.6    0.009    0.011   31.886   31.887
 init_scf_loop                       11  6.9    0.000    0.001   31.863   31.867
 rebuild_ks_matrix                  127  8.3    0.001    0.001   27.632   28.216
 qs_ks_build_kohn_sham_matrix       127  9.3    0.019    0.023   27.631   28.214
 prepare_preconditioner              11  7.9    0.000    0.000   27.917   27.965
 make_preconditioner                 11  8.9    0.000    0.001   27.917   27.965
 qs_ot_get_p                        127 10.4    0.001    0.002   27.012   27.555
 make_full_inverse_cholesky          11  9.9    0.001    0.001   27.034   27.184
 qs_ks_update_qs_env                127  7.6    0.002    0.003   25.001   25.560
 multiply_cannon_metrocomm1       38896 15.5    0.105    0.120   14.050   24.755
 mp_irecv_dv                      97746 16.0    9.580   19.174    9.580   19.174
 qs_ot_p2m_diag                      66 11.2    0.061    0.071   16.855   16.887
 cp_dbcsr_syevd                      66 12.2    0.008    0.009   15.858   15.864
 cp_fm_cholesky_invert               11 10.9   15.782   15.787   15.782   15.787
 cp_fm_diag_elpa                     66 13.2    0.000    0.001   15.741   15.746
 cp_fm_redistribute_end              66 14.2   13.432   15.648   13.471   15.652
 qs_ot_get_derivative_diag           62 12.2    0.002    0.002   15.201   15.480
 make_m2s                          4862 13.5    0.101    0.119   14.906   15.368
 cp_fm_diag_elpa_base                66 14.2    2.133   15.229    2.158   15.359
 qs_rho_update_rho                  127  7.7    0.001    0.001   14.280   14.466
 calculate_rho_elec                 127  8.7    0.042    0.044   14.279   14.465
 make_images                       4862 14.5    0.655    0.961   12.172   12.877
 multiply_cannon_metrocomm2       36465 15.5    0.120    0.137    4.202   12.583
 pw_transfer                       1535 11.6    0.124    0.150   12.198   12.513
 fft_wrap_pw1pw2                   1281 12.7    0.009    0.011   12.017   12.345
 fft3d_ps                          1281 14.7    1.586    2.257   11.429   11.764
 fft_wrap_pw1pw2_140                519 13.2    0.220    0.229   11.161   11.535
 sum_up_and_integrate               127 10.3    0.028    0.034   10.791   10.823
 integrate_v_rspace                 127 11.3    0.004    0.005   10.763   10.792
 multiply_cannon_metrocomm4       36465 15.5    0.105    0.118    5.924   10.725
 init_scf_run                        11  5.9    0.000    0.001   10.719   10.720
 scf_env_initial_rho_setup           11  6.9    0.000    0.001   10.719   10.720
 qs_ot_get_derivative_taylor         54 13.0    0.002    0.002   10.143   10.351
 cp_fm_cholesky_decompose            22 10.9    9.965   10.006    9.965   10.006
 wfi_extrapolate                     11  7.9    0.002    0.003    9.546    9.547
 calculate_dm_sparse                127  9.5    0.001    0.001    9.057    9.416
 mp_alltoall_z22v                  1281 16.7    9.094    9.154    9.094    9.154
 multiply_cannon_metrocomm3       38896 15.5    0.086    0.095    3.870    9.153
 make_images_data                  4862 15.5    0.065    0.082    7.760    8.674
 qs_energies_init_hamiltonians       11  5.9    0.001    0.001    8.649    8.649
 hybrid_alltoall_any               5031 16.4    0.230    3.078    7.469    8.648
 yz_to_x                            265 15.9    0.075    0.090    8.256    8.302
 qs_env_update_s_mstruct             11  6.9    0.000    0.000    8.205    8.237
 grid_collocate_task_list           127  9.7    7.443    8.161    7.443    8.161
 mp_sum_l                         11831 13.4    5.778    8.025    5.778    8.025
 calculate_rho_core                  11  7.9    0.081    0.084    7.908    7.946
 rs_pw_transfer                    1038 11.9    0.015    0.020    6.131    7.145
 qs_ot_get_orbitals                 116 10.6    0.001    0.001    6.378    6.493
 density_rs2pw                      127  9.7    0.005    0.007    5.358    6.308
 grid_integrate_task_list           127 12.3    5.533    5.860    5.533    5.860
 cp_dbcsr_sm_fm_multiply             37  9.5    0.002    0.003    5.347    5.353
 cp_dbcsr_sm_fm_multiply_core        37 10.5    0.000    0.000    4.304    4.558
 -------------------------------------------------------------------------------

 The number of warnings for this run is : 1
 
 -------------------------------------------------------------------------------
  **** **** ******  **  PROGRAM ENDED AT                 2022-01-17 17:02:57.629
 ***** ** ***  *** **   PROGRAM RAN ON                                 nid001698
 **    ****   ******    PROGRAM RAN BY                                    hjudge
 ***** **    ** ** **   PROGRAM PROCESS ID                                106648
  **** **  *******  **  PROGRAM STOPPED IN /mnt/lustre/a2fs-work2/work/z19/z19/h
                                           judge/CUG/archer2/CPU/CP2K/H2O-512/4N
                                           ODES/128CPN/2THREADS
